ITEM: TIMESTEP
19044600
ITEM: NUMBER OF ATOMS
768
ITEM: BOX BOUNDS pp pp pp
0.0000000000000000e+00 1.9730000000000000e+01
0.0000000000000000e+00 1.9730000000000000e+01
0.0000000000000000e+00 1.9730000000000000e+01
ITEM: ATOMS id type xs ys zs
550 2 0.171035 0.229254 0.19907
40 3 0.154841 0.188717 0.223379
266 2 0.072699 0.120342 0.0825599
426 2 0.126963 0.16231 0.191033
43 3 0.0401098 0.123168 0.159613
318 2 0.0352915 0.0763503 0.181529
144 3 0.0932748 0.107618 0.0371354
502 2 0.213261 0.141899 0.273778
552 2 0.108186 0.0607579 0.0360853
601 2 0.217063 0.086663 0.0945065
330 2 0.197408 0.182367 0.00534814
2 3 0.239636 0.124348 0.0743608
714 2 0.270637 0.139417 0.107639
302 2 0.343135 0.109382 0.188451
24 3 0.347976 0.152302 0.163548
729 2 0.34983 0.18606 0.203975
588 2 0.309771 0.0884669 0.0295534
360 2 0.384742 0.0685357 0.0432334
135 3 0.352855 0.0770395 0.00755889
146 3 0.342609 0.0384651 0.259911
725 2 0.373964 0.204215 0.0328331
598 2 0.479577 -0.00180529 0.174543
411 2 0.528739 0.0908387 0.172646
220 3 0.508962 0.0185217 0.209764
126 3 0.394915 0.246501 0.0422109
257 2 0.320364 0.00678849 0.289281
41 3 0.541919 0.135575 0.161092
370 2 0.602877 0.162628 0.230315
763 2 0.566273 0.128708 0.119151
105 3 0.666911 0.154734 0.0643098
585 2 0.708935 0.172043 0.0835227
603 2 0.685615 0.0627589 0.0247586
639 2 0.676462 0.180662 0.249684
12 3 0.628515 0.190186 0.259488
494 2 0.552093 -0.00155013 0.200305
26 3 0.643956 0.963894 0.21874
624 2 0.680626 -0.00311649 0.221588
767 2 0.64079 0.187919 0.0405512
150 3 0.693345 0.0275886 0.989533
287 2 0.996367 0.147363 0.159923
268 2 0.750865 0.0782127 0.253743
524 2 0.920861 0.231198 0.187941
572 2 0.814862 0.205581 0.0604415
25 3 0.791464 0.203717 0.129589
736 2 0.885767 0.20649 0.127601
636 2 0.775619 0.181079 0.190813
82 3 0.759811 0.161165 0.237872
164 3 0.93073 0.214804 0.143387
196 3 0.240872 0.490262 0.0847988
462 2 0.165077 0.310639 0.126618
5 3 0.100335 0.366716 0.0770119
61 3 0.203342 0.290614 0.147403
375 2 0.236648 0.326739 0.154385
457 2 0.112656 0.406069 0.0492952
754 2 0.0507595 0.333286 0.136852
496 2 0.0929992 0.330594 0.0430787
655 2 0.158078 0.494965 0.0423965
444 2 0.250598 0.500882 0.134773
34 3 0.118387 0.495296 0.00947278
431 2 0.270579 0.454612 0.0748408
119 3 0.260443 0.494938 0.21923
198 3 0.302426 0.36652 0.213145
501 2 0.296724 0.415485 0.203912
511 2 0.341137 0.352055 0.183451
125 3 0.334489 0.382499 0.0533961
525 2 0.3753 0.410818 0.0466822
320 2 0.347952 0.335467 0.0397425
31 3 0.444884 0.37545 0.251025
595 2 0.410466 0.243206 0.0899211
195 3 0.480586 0.265396 0.136585
765 2 0.48737 0.292882 0.176955
672 2 0.339361 0.283004 0.278777
362 2 0.484336 0.221521 0.161342
483 2 0.602601 0.325559 0.0322309
538 2 0.540879 0.440547 0.0894322
16 3 0.571544 0.287891 0.0330382
317 2 0.54401 0.285051 0.0746782
27 3 0.585946 0.450754 0.111014
59 3 0.69211 0.440814 0.0357204
391 2 0.710749 0.407611 1.00187
680 2 0.622492 0.446103 0.0756069
512 2 0.594964 0.432533 0.187073
225 3 0.470422 0.437995 0.032418
653 2 0.685834 0.483578 0.00836356
276 2 0.78464 0.251064 0.138415
331 2 0.748964 0.387588 0.101553
203 3 0.795169 0.371069 0.120724
258 2 0.834055 0.378889 0.0910253
737 2 0.819789 0.350252 0.201332
478 2 0.99785 0.278093 0.151057
217 3 0.891735 0.433542 0.0482476
353 2 0.925694 0.462221 0.0612899
214 3 0.0303306 0.308886 0.176047
516 2 0.982935 0.38502 0.192011
128 3 0.952357 0.42369 0.197376
682 2 0.920294 0.404519 0.230163
554 2 0.932772 0.3424 -0.006914
441 2 0.226276 0.516796 0.249103
282 2 0.0304915 0.527199 0.0624776
46 3 0.0671599 0.665337 0.182731
468 2 0.0477732 0.629625 0.210474
635 2 0.11627 0.66111 0.181198
284 2 0.246312 0.655058 0.161949
567 2 -0.0134378 0.529525 0.12554
239 3 0.00564437 0.716587 0.0756317
402 2 0.0205938 0.681032 0.10767
336 2 0.0237725 0.719009 0.030751
147 3 0.284575 0.649644 0.132675
359 2 0.322678 0.633452 0.158796
95 3 0.193284 0.662669 0.238524
158 3 0.983167 0.531793 0.0765568
75 3 0.017951 0.539528 0.247043
389 2 0.181352 0.623131 0.268307
396 2 0.187782 0.700043 0.271784
349 2 0.273556 0.612874 0.024719
361 2 0.304548 0.523247 0.221414
28 3 0.459711 0.665411 0.16131
423 2 0.41105 0.602407 0.201775
673 2 0.466051 0.712852 0.177503
676 2 0.445824 0.664482 0.115595
660 2 0.529655 0.626905 0.171049
323 2 0.278351 0.725123 0.097785
73 3 0.406373 0.668481 0.033842
398 2 0.459633 0.736932 1.00684
3 3 0.575459 0.607745 0.168156
711 2 0.572469 0.564048 0.188204
420 2 0.638515 0.674193 0.186512
351 2 0.622056 0.736095 0.139203
44 3 0.658052 0.713021 0.165959
409 2 0.706699 0.649545 0.129115
541 2 0.593488 0.629261 0.0804366
235 3 0.599085 0.664182 0.0473263
201 3 0.733538 0.616068 0.105023
731 2 0.709076 0.582282 0.0366818
300 2 0.552938 0.674098 0.0342629
604 2 0.824253 0.500929 0.119498
492 2 0.866296 0.565675 0.123413
648 2 0.761218 0.585163 0.135406
18 3 0.835917 0.53877 0.146747
288 2 0.967486 0.72165 0.236364
232 3 0.940316 0.742332 0.269515
576 2 0.00207502 0.493798 0.236441
616 2 0.937199 0.660115 0.0265598
566 2 0.105136 0.976525 0.15236
160 3 0.135429 0.956085 0.11778
307 2 0.0997939 0.937019 0.0875503
342 2 0.231069 0.891734 0.175503
194 3 0.0128322 0.922463 0.0691768
545 2 0.0277239 0.897435 0.0272467
327 2 0.0729025 0.768436 0.181817
58 3 0.0873294 0.807945 0.205841
565 2 0.0438265 0.829638 0.219192
91 3 0.274397 0.883555 0.157816
534 2 0.228032 0.769124 0.0651859
742 2 0.277812 0.834683 0.142932
382 2 0.366864 0.00355037 0.236136
234 3 0.453906 0.99887 0.0729318
236 3 0.275241 0.76879 0.0772787
254 3 0.47979 0.805841 0.201017
156 3 0.395308 0.92995 0.206321
333 2 0.354705 0.909382 0.18524
340 2 0.426692 0.890692 0.213035
329 2 0.504079 0.789701 0.239338
308 2 0.422577 0.961139 0.0733917
460 2 0.275541 0.920121 0.0734446
305 2 0.511713 0.821797 0.166047
229 3 0.292679 0.936218 0.0293509
456 2 0.327637 0.793991 0.00310219
293 2 0.485084 0.987615 0.0380618
719 2 0.538852 0.80843 0.0525189
632 2 0.698291 0.882174 0.0999995
55 3 0.562263 0.810091 0.0940911
574 2 0.590832 0.8497 0.0969397
50 3 0.666159 0.920067 0.0951616
688 2 0.663101 0.941401 0.141868
602 2 0.673153 0.750623 0.244653
139 3 0.501248 0.758176 0.994667
103 3 0.922407 -0.00170317 0.00932102
369 2 0.94305 0.801804 0.0960154
381 2 0.882525 0.83553 0.120783
93 3 0.910199 0.83318 0.0809284
399 2 0.982098 0.890844 0.0903048
419 2 0.959625 0.972282 0.0307717
88 3 0.753618 0.812791 0.105955
674 2 0.725971 0.783473 0.0732668
278 2 0.821532 0.93694 0.138814
469 2 0.769689 0.792685 0.146912
698 2 0.879483 0.976291 0.0252309
401 2 0.75446 0.964882 0.0323736
453 2 0.86021 0.789421 0.252391
237 3 0.820055 0.804426 0.230074
700 2 0.803189 0.900554 0.0328209
108 3 0.801168 0.948906 0.0375394
569 2 0.813896 0.893846 0.206144
247 3 0.836049 0.937682 0.189654
481 2 0.795275 0.0108139 0.242225
759 2 0.783108 0.790326 0.259161
98 3 0.213461 0.221485 0.402472
262 2 0.0974197 1.00419 0.254429
730 2 0.124797 0.241041 0.424771
21 3 0.0754504 0.239297 0.42494
735 2 0.11521 0.0942856 0.395281
404 2 0.0788142 0.173205 0.275004
269 2 0.0556103 0.187674 0.347112
514 2 0.0429582 0.193812 0.49034
652 2 0.171052 0.0585264 0.441957
48 3 0.125615 0.0574779 0.422335
94 3 0.23271 0.112118 0.308653
161 3 0.047502 0.157496 0.309982
112 3 0.182076 0.980366 0.296695
634 2 0.189926 0.0228964 0.319405
709 2 0.220178 0.184488 0.370666
539 2 0.222516 0.265738 0.384161
690 2 0.280101 0.112474 0.300436
425 2 0.370346 0.156133 0.411949
577 2 0.457724 0.0442528 0.426899
209 3 0.360954 0.195429 0.443151
482 2 0.319358 0.215552 0.425293
170 3 0.486103 0.00794077 0.451654
751 2 0.395767 0.0749855 0.321916
109 3 0.420419 0.0994532 0.360999
339 2 0.466542 0.114008 0.346945
322 2 0.709474 0.109057 0.389858
613 2 0.585505 0.180704 0.337069
9 3 0.697881 0.159294 0.391037
96 3 0.740155 0.0234422 0.399817
231 3 0.544737 0.183894 0.364824
328 2 0.553023 0.191542 0.414173
386 2 0.678918 0.164141 0.435453
707 2 0.705596 -0.0055554 0.420575
384 2 0.584933 0.99279 0.452449
449 2 0.592898 0.187571 0.531089
22 3 0.751515 0.0278344 0.257628
77 3 0.978042 0.0296678 0.357061
701 2 0.740519 0.0184303 0.352742
631 2 0.780571 0.182662 0.276062
647 2 0.996643 0.069769 0.332476
618 2 0.7901 0.187284 0.370745
275 2 0.955152 0.218522 0.28959
138 3 0.917557 0.249714 0.289494
745 2 0.884718 0.229745 0.321059
211 3 0.838118 0.204927 0.375829
716 2 0.852087 0.1936 0.422239
297 2 0.825548 0.0400031 0.430782
291 2 0.900044 0.0593418 0.408629
47 3 0.0126117 0.159518 0.514574
484 2 0.96872 0.181093 0.5076
448 2 0.0499498 0.396571 0.414416
684 2 0.0554294 0.287504 0.432092
623 2 0.12619 0.374977 0.398838
184 3 0.203711 0.342377 0.319948
252 3 0.0943949 0.383309 0.436056
363 2 0.228537 0.332992 0.281453
568 2 0.407938 0.408184 0.269836
658 2 0.20711 0.391005 0.321341
241 3 0.348925 0.236399 0.282905
271 2 0.487891 0.254986 0.365433
223 3 0.282094 0.316489 0.495812
537 2 0.256077 0.360046 0.478806
250 3 0.256869 0.458462 0.435038
190 3 0.364406 0.464882 0.337202
366 2 0.386619 0.240175 0.316959
664 2 0.407919 0.467813 0.361912
62 3 0.452469 0.290435 0.354658
309 2 0.467596 0.316173 0.314448
610 2 0.29545 0.461554 0.404359
429 2 0.439538 0.318655 0.438682
33 3 0.485441 0.493617 0.395683
656 2 0.326843 0.326796 0.478831
621 2 0.274841 0.475792 0.477284
633 2 0.487669 0.40055 0.251605
671 2 0.521562 0.465422 0.414174
675 2 0.672375 0.272826 0.28644
397 2 0.614232 0.389224 0.250026
208 3 0.588589 0.428517 0.238257
415 2 0.729661 0.326028 0.278524
83 3 0.683411 0.317956 0.297549
704 2 0.614854 0.41424 0.470768
414 2 0.685529 0.323737 0.460257
283 2 0.648641 0.311735 0.397568
141 3 0.640505 0.326937 0.443616
183 3 0.592531 0.456925 0.455656
367 2 0.631684 0.486171 0.436791
590 2 0.607934 0.245038 0.485838
216 3 0.571391 0.215772 0.496338
355 2 0.754904 0.463483 0.326037
301 2 0.80887 0.405233 0.301595
142 3 0.765701 0.305543 0.507862
123 3 0.816892 0.340681 0.24954
681 2 0.85347 0.306132 0.259138
713 2 0.789506 0.264728 0.491386
746 2 0.830618 0.415563 0.414263
213 3 0.970243 0.339461 0.401316
544 2 0.929448 0.36013 0.417391
45 3 0.851344 0.4018 0.456148
244 3 0.799483 0.445494 0.330292
433 2 0.955486 0.303179 0.369786
465 2 0.870936 0.436733 0.483568
592 2 0.7947 0.344092 0.496466
32 3 0.14258 0.548123 0.3104
628 2 0.0997977 0.52763 0.293477
619 2 0.148535 0.542869 0.361663
593 2 0.182098 0.535835 0.458965
277 2 0.203096 0.715542 0.392005
255 3 0.242422 0.694884 0.416262
395 2 0.240652 0.705098 0.465031
696 2 0.188761 0.61152 0.469406
179 3 0.154459 0.576001 0.469488
497 2 0.0713458 0.74613 0.373721
188 3 0.375168 0.578916 0.232015
334 2 0.3622 0.51001 0.320003
627 2 0.362572 0.607251 0.270129
13 3 0.353331 0.62491 0.364889
678 2 0.378198 0.610545 0.401463
486 2 0.311408 0.646184 0.383574
42 3 0.449989 0.587106 0.492228
265 2 0.464027 0.547028 0.468244
529 2 0.54709 0.722653 0.489138
518 2 0.560824 0.64224 0.332468
536 2 0.652548 0.48502 0.295654
148 3 0.672621 0.511168 0.332619
710 2 0.643509 0.549362 0.332294
171 3 0.585556 0.606779 0.356194
400 2 0.610332 0.625287 0.39498
670 2 0.513736 0.530706 0.373593
477 2 0.685815 0.627814 0.486833
70 3 0.667208 0.707537 0.417305
298 2 0.683917 0.733911 0.376443
428 2 0.681293 0.733959 0.45789
97 3 0.678776 0.587712 0.51443
498 2 0.632741 0.597719 0.534343
532 2 0.974912 0.557379 0.26599
508 2 0.940985 0.60897 0.403871
373 2 0.981289 0.672909 0.421869
124 3 0.968911 0.625924 0.439721
589 2 0.857467 0.55212 0.239703
522 2 0.858148 0.50145 0.300338
248 3 0.0221357 0.739683 0.391707
90 3 0.88014 0.546781 0.282771
644 2 0.965508 0.742648 0.312482
377 2 0.825765 0.61619 0.316485
720 2 0.816407 0.715613 0.394096
692 2 0.749674 0.612664 0.337248
113 3 0.789459 0.638616 0.340688
159 3 0.0578548 0.0115225 0.223451
643 2 0.193866 0.946518 0.33006
296 2 0.0969317 0.970051 0.442834
527 2 0.114868 0.773901 0.290024
65 3 0.139975 0.761052 0.330855
582 2 0.157868 0.891101 0.428205
80 3 0.199366 0.887834 0.402464
437 2 0.162985 0.801446 0.340004
243 3 0.0662851 0.930971 0.437906
645 2 0.0526194 0.925485 0.487778
531 2 0.0222956 0.984472 0.245869
651 2 0.23605 0.887873 0.439352
762 2 0.430133 0.0367541 0.588542
677 2 0.385406 0.763904 0.36687
597 2 0.427931 0.937563 0.321111
374 2 0.470736 0.964629 0.433322
149 3 0.457153 0.913095 0.351333
263 2 0.429019 0.871676 0.364777
706 2 0.483111 0.761446 0.468809
4 3 0.397515 0.801362 0.397855
335 2 0.519218 0.753951 0.361639
542 2 0.36091 0.953753 0.501249
104 3 0.343197 0.911895 0.485335
325 2 0.358293 0.819869 0.420712
533 2 0.638263 0.943302 0.262237
689 2 0.580826 0.729266 0.329281
6 3 0.532558 0.729539 0.320089
153 3 0.53048 0.764647 0.463401
67 3 0.675616 0.767565 0.290018
703 2 0.645512 0.805238 0.289534
280 2 0.617208 0.91744 0.480107
230 3 0.619504 0.958366 0.447945
667 2 0.558807 0.895343 0.325934
392 2 0.619632 0.915763 0.366141
60 3 0.607213 0.891629 0.327218
17 3 0.72682 0.782572 0.523202
378 2 1.01722 1.01553 0.384958
207 3 0.86876 0.0569263 0.447804
490 2 1.00775 0.781327 0.413507
290 2 0.921484 0.917309 0.219491
107 3 0.970274 0.907954 0.233902
292 2 0.965706 0.897498 0.282932
35 3 0.917764 0.839237 0.381021
466 2 0.884394 0.808609 0.400906
442 2 0.934027 0.871178 0.411975
306 2 0.779105 0.763747 0.442926
7 3 0.823037 0.75059 0.426013
312 2 0.124039 0.140545 0.694056
503 2 -0.00659531 0.0611948 0.541801
187 3 0.167836 0.122536 0.702765
747 2 0.174045 0.0899393 0.665796
114 3 0.0397041 0.175342 0.664645
637 2 0.0560315 0.162483 0.618675
727 2 0.22058 0.192833 0.642604
668 2 0.0616944 0.22004 0.667083
152 3 0.17967 0.0110306 0.600141
549 2 0.211609 0.993232 0.634992
755 2 0.208247 0.0385645 0.571705
513 2 0.36251 0.0448705 0.560292
749 2 0.417251 0.185148 0.54193
726 2 0.308824 0.133508 0.510653
121 3 0.287237 0.104085 0.543849
640 2 0.377527 0.170388 0.774836
303 2 0.290281 0.19644 0.669031
111 3 0.266662 0.205733 0.628236
445 2 0.285623 0.135255 0.582223
452 2 0.374384 0.0350695 0.677587
87 3 0.483167 0.176849 0.703596
102 3 0.439667 0.167751 0.580975
764 2 0.357888 0.0874948 0.745526
615 2 0.455736 0.177464 0.662318
332 2 0.479497 0.146452 0.560345
191 3 0.534307 0.0698539 0.5635
358 2 0.705799 0.209774 0.592648
240 3 0.703516 0.166139 0.564515
583 2 0.685541 0.092296 0.597911
440 2 0.580863 0.056837 0.568753
506 2 0.672348 0.0494003 0.663301
37 3 0.669544 0.048776 0.614826
521 2 0.846731 0.128713 0.503313
253 3 0.840577 0.180799 0.510092
738 2 0.864991 0.193231 0.55226
36 3 0.901246 0.17101 0.635891
472 2 0.951116 0.172045 0.644645
750 2 0.892957 0.123832 0.652787
136 3 0.891179 0.0367202 0.661058
365 2 0.751907 0.161065 0.550944
438 2 0.85401 0.253209 0.667789
251 3 0.97889 0.0136949 0.551676
387 2 0.941176 0.00212085 0.524336
364 2 0.907906 0.053971 0.70368
646 2 0.196775 0.24945 0.533508
458 2 0.0900166 0.410499 0.525891
337 2 0.1212 0.275903 0.529286
654 2 0.0797035 0.34315 0.637833
177 3 0.0731587 0.312047 0.677376
15 3 0.15137 0.243936 0.554336
756 2 0.275073 0.328219 0.582703
212 3 0.0905616 0.416597 0.5765
571 2 0.240342 0.398442 0.601041
495 2 0.11934 0.316791 0.69862
687 2 0.999361 0.342821 0.700699
475 2 0.130234 0.44319 0.593506
204 3 0.437143 0.341705 0.482459
556 2 0.474 0.320866 0.505459
480 2 0.479031 0.22469 0.717876
166 3 0.270876 0.362152 0.617849
573 2 0.348755 0.404383 0.619094
120 3 0.390891 0.428533 0.618103
586 2 0.41062 0.414364 0.575996
617 2 0.437638 0.35577 0.695549
663 2 0.441527 0.487187 0.680558
464 2 0.329801 0.488196 0.564634
162 3 0.470795 0.332341 0.720149
163 3 0.48167 0.516395 0.686916
407 2 0.710372 0.29228 0.667063
86 3 0.693058 0.299811 0.620055
519 2 0.73482 0.321622 0.601049
313 2 0.60855 0.344023 0.645166
488 2 0.516075 0.348407 0.704369
133 3 0.581671 0.382667 0.662206
579 2 0.610429 0.40191 0.698601
393 2 0.573416 0.452072 0.609774
260 2 0.706491 0.471978 0.70319
69 3 0.679908 0.451317 0.73773
11 3 0.713893 0.308351 0.771135
561 2 0.706992 0.317727 0.818426
321 2 0.705535 0.415166 0.753971
427 2 0.611484 0.483018 0.80012
372 2 0.0121013 0.454447 0.605414
721 2 0.937232 0.388078 0.682399
740 2 0.871706 0.308266 0.715502
154 3 0.969736 0.472325 0.622317
117 3 0.831845 0.282189 0.70213
19 3 0.954718 0.35144 0.715433
311 2 0.757752 0.29022 0.765493
228 3 0.183677 0.489512 0.634346
319 2 0.162247 0.50514 0.67752
49 3 0.218228 0.711717 0.56136
553 2 0.240033 0.684432 0.599057
528 2 0.0503349 0.696382 0.580292
376 2 0.0739115 0.556027 0.716275
683 2 0.175744 0.723235 0.577973
368 2 0.179595 0.529666 0.600399
140 3 0.0241496 0.566303 0.707206
175 3 0.0657468 0.74402 0.583923
551 2 0.406344 0.57303 0.512841
642 2 0.277702 0.603894 0.68187
151 3 0.311605 0.526832 0.54141
657 2 0.302226 0.560488 0.578084
489 2 0.51002 0.519545 0.645741
64 3 0.286408 0.622355 0.635045
600 2 0.332439 0.632718 0.637509
338 2 0.45737 0.659667 0.603118
79 3 0.429961 0.650463 0.640185
641 2 0.45341 0.641077 0.682545
530 2 0.514501 0.632227 0.551195
560 2 0.587545 0.488005 0.548623
178 3 0.579404 0.498937 0.594672
732 2 0.742539 0.531028 0.571693
71 3 0.769387 0.511863 0.60631
131 3 0.549348 0.667896 0.553416
734 2 0.574951 0.659747 0.597372
430 2 0.659588 0.624448 0.683664
638 2 0.551342 0.625459 0.734563
197 3 0.614295 0.61819 0.669608
314 2 0.612649 0.570013 0.650622
110 3 0.75929 0.632641 0.686073
686 2 0.790013 0.732759 0.669493
199 3 0.778697 0.778987 0.65201
546 2 0.781007 0.632516 0.730928
715 2 0.772812 0.59563 0.659348
344 2 0.53845 0.498887 0.768399
591 2 0.813977 0.515082 0.585071
371 2 0.921605 0.49533 0.565234
345 2 0.984684 0.502496 0.659187
270 2 1.00655 0.61341 0.538175
510 2 0.0133185 0.595685 0.619647
222 3 0.997554 0.629707 0.58515
122 3 0.887771 0.509907 0.531203
417 2 0.91179 0.546162 0.504501
728 2 1.00183 0.598963 0.736258
744 2 0.925292 0.718143 0.559718
379 2 0.948187 0.710983 0.782665
447 2 0.115219 0.831046 0.566875
23 3 0.0592612 0.943918 0.690331
281 2 0.0257451 0.931752 0.656342
383 2 0.0645462 0.756741 0.630344
129 3 0.160026 0.854527 0.562526
450 2 0.151718 0.899879 0.581372
348 2 0.0930997 0.967892 0.662518
463 2 0.0592776 0.821734 0.718923
180 3 0.0704338 0.773844 0.716859
599 2 0.0289464 0.745179 0.722284
630 2 0.00640419 0.805587 0.559188
418 2 0.276148 0.885536 0.643892
581 2 0.247869 0.829114 0.592915
81 3 0.290794 0.855249 0.606529
200 3 0.388617 0.0160613 0.590734
439 2 0.324203 0.891493 0.528266
137 3 0.257376 0.956539 0.70153
78 3 0.361388 0.0414966 0.726139
422 2 0.38931 0.725855 0.664472
694 2 0.289544 0.993779 0.708752
286 2 0.352697 0.797141 0.656509
221 3 0.373809 0.763158 0.685274
346 2 0.247324 0.949263 0.748174
356 2 0.571929 0.822837 0.503709
294 2 0.560813 0.973227 0.635365
587 2 0.518655 0.935799 0.692474
629 2 0.513341 0.0435981 0.524113
155 3 0.555774 0.929426 0.658426
172 3 0.60256 0.852095 0.529985
485 2 0.582121 0.862513 0.573802
451 2 0.630992 0.887283 0.681497
665 2 0.729349 0.766478 0.566244
548 2 0.699405 0.845132 0.684358
504 2 0.694577 0.818698 0.524705
130 3 0.663206 0.86149 0.710062
354 2 0.757008 0.965744 0.648058
118 3 0.010182 0.854995 0.552081
487 2 0.841766 0.953494 0.487221
650 2 0.927363 0.0293694 0.627158
127 3 0.901745 0.761266 0.56283
285 2 0.817733 0.794748 0.629056
219 3 0.799395 0.938407 0.64497
760 2 0.841209 0.909291 0.556011
757 2 0.8908 0.784605 0.702667
57 3 0.866078 0.91632 0.512465
562 2 0.964552 0.866138 0.540862
596 2 0.882805 0.764888 0.515236
659 2 0.836258 0.974997 0.642623
143 3 0.909344 0.783725 0.746671
408 2 0.897226 0.824102 0.770665
434 2 0.119751 0.245551 0.979972
324 2 0.150594 0.0942777 0.789551
39 3 0.0349822 0.150714 0.933402
505 2 0.0641564 0.139699 0.975626
413 2 0.0666344 0.145795 0.896871
8 3 0.139354 0.0845982 0.838454
92 3 0.251574 0.144011 0.862366
299 2 0.214391 0.109299 0.864098
261 2 0.116587 0.0380517 0.831884
476 2 0.0487721 0.277561 0.960235
712 2 0.225171 0.276837 0.755542
620 2 0.201554 0.205944 0.927362
30 3 0.172563 0.19715 0.966625
563 2 0.37423 0.00350924 0.930209
558 2 0.287211 0.12386 0.890077
167 3 0.331988 0.179231 0.761364
206 3 0.367917 0.988644 0.881688
352 2 0.397611 0.0214616 0.859301
388 2 0.296479 0.165776 0.795456
499 2 0.408134 0.117462 0.937179
543 2 0.456027 0.138686 0.88144
168 3 0.40854 0.144439 0.894996
752 2 0.416929 0.257094 0.883733
612 2 0.591198 0.990056 1.01215
435 2 0.519304 0.145916 0.777159
56 3 0.530978 0.142556 0.826331
605 2 0.556509 0.0996366 0.830818
649 2 0.614432 0.0110266 0.821005
99 3 0.691227 0.0225471 0.789316
733 2 0.574576 0.208349 0.887426
54 3 0.56855 0.00935916 0.842603
74 3 0.729923 0.231544 0.917655
454 2 0.682906 0.215409 0.922853
708 2 0.543178 0.97653 0.816158
608 2 0.727971 0.0472185 0.811706
406 2 0.700912 0.0561453 0.948512
570 2 0.549487 0.996815 0.948653
691 2 0.981169 0.136178 0.941944
116 3 0.919425 0.122215 0.957375
547 2 0.913453 0.0837603 0.989895
380 2 0.891404 0.160113 0.974004
29 3 0.82461 0.208828 0.00757638
357 2 0.858506 0.241772 -0.00242129
693 2 0.955414 0.128528 0.781772
10 3 0.928914 0.0858757 0.783298
625 2 0.952566 0.059031 0.815442
341 2 0.759663 0.164222 0.850896
416 2 0.812302 0.105438 0.867488
14 3 0.763311 0.114005 0.857393
743 2 0.753938 0.216308 0.957068
1 3 0.09157 0.291138 0.978476
436 2 0.232041 0.320898 0.687038
72 3 0.20376 0.310288 0.727888
421 2 0.13352 0.464177 0.973065
611 2 0.120622 0.359503 0.923841
193 3 0.109951 0.403137 0.899809
535 2 0.233721 0.41637 0.789599
385 2 0.184191 0.426191 0.851033
238 3 0.219015 0.446207 0.824216
766 2 0.0609012 0.401675 0.886721
410 2 0.268745 0.51133 0.871762
739 2 0.16228 0.504555 0.777894
717 2 0.479878 0.481662 0.0107035
424 2 0.435755 0.270187 0.958088
157 3 0.444471 0.288002 0.91061
106 3 0.440233 0.418771 0.829748
272 2 0.442853 0.517152 0.843937
459 2 0.442339 0.381323 0.795561
474 2 0.435566 0.388389 0.86965
316 2 0.720885 0.323132 0.916331
289 2 0.574321 0.246391 0.962137
233 3 0.602484 0.231879 0.922029
768 2 0.493852 0.406123 1.00116
662 2 0.561964 0.348561 0.92441
132 3 0.711857 0.371359 0.901019
405 2 0.661434 0.374034 0.905889
66 3 0.573572 0.39287 0.924683
491 2 0.548193 0.409148 0.882378
559 2 0.878353 0.448998 0.00439268
52 3 0.938069 0.297174 0.97607
758 2 0.803206 0.405711 0.9056
446 2 0.965109 0.383987 0.809984
85 3 0.84431 0.431522 0.907709
748 2 0.920214 0.406157 0.869605
68 3 0.963674 0.391654 0.858652
455 2 0.932884 0.304471 0.928323
479 2 0.835633 0.482406 0.91154
509 2 0.143343 0.788147 0.979438
101 3 0.147142 0.769629 0.025093
326 2 0.115113 0.796506 0.0501065
186 3 0.146694 0.536094 0.743048
540 2 0.140511 0.572599 0.964046
84 3 0.151228 0.608391 0.93085
295 2 0.182944 0.63702 0.955743
705 2 0.177647 0.575701 0.753511
669 2 0.0532067 0.717287 0.928064
256 3 0.0369631 0.673159 0.917866
467 2 0.0788872 0.646906 0.923711
661 2 0.216622 0.66552 0.77891
185 3 0.234678 0.620584 0.767251
594 2 0.254194 0.599201 0.807165
53 3 0.508085 0.642139 0.76307
202 3 0.434726 0.5637 0.855509
38 3 0.284283 0.556134 0.870607
343 2 0.300135 0.60205 0.949625
695 2 0.358106 0.669073 0.0233113
578 2 0.468956 0.584766 0.828139
761 2 0.335655 0.552396 0.867398
210 3 0.289636 0.632762 0.984847
679 2 0.425824 0.626314 0.0131139
432 2 0.474509 0.561573 0.934279
515 2 0.411197 0.694287 0.838258
753 2 0.529567 0.683336 0.780795
242 3 0.563574 0.479703 0.804689
205 3 0.492591 0.565061 0.980442
315 2 0.674854 0.715713 0.0107676
523 2 0.737113 0.734813 0.961386
169 3 0.706292 0.749308 -0.000524758
584 2 0.538295 0.574703 0.981597
226 3 0.594365 0.737846 0.800074
76 3 0.601627 0.625281 0.892495
304 2 0.600584 0.584716 0.865892
555 2 0.606546 0.664256 0.861097
279 2 0.67024 0.579759 0.966148
181 3 0.703589 0.556794 0.991804
614 2 0.62019 0.757553 0.7621
493 2 0.576316 0.776531 0.824802
473 2 0.992295 0.67159 0.829135
443 2 0.857998 0.644389 0.810219
192 3 0.810215 0.642597 0.821523
264 2 0.813471 0.609993 0.857562
174 3 0.91644 0.647207 0.98276
606 2 0.777578 0.573175 0.957328
507 2 0.956678 0.643516 0.956707
246 3 0.82128 0.562897 0.935342
471 2 0.852789 0.59809 0.952614
224 3 0.961868 0.663898 0.792916
115 3 0.788975 0.755429 0.894172
580 2 0.792121 0.71194 0.868019
394 2 0.296103 0.962804 0.85413
564 2 0.206051 0.996629 1.00388
218 3 0.177577 1.00879 0.963404
347 2 0.0796728 0.945117 0.785972
557 2 0.140699 0.974997 0.962928
51 3 0.165075 0.728539 0.799016
741 2 0.130031 0.748308 0.768526
20 3 0.0814347 0.960949 0.833676
310 2 0.0310847 0.96695 0.8419
274 2 0.177187 0.76901 0.828753
718 2 0.223512 0.976184 0.884174
245 3 0.0404422 0.855079 0.960321
526 2 0.0550009 0.873973 0.918842
403 2 0.00109521 0.821773 0.950827
249 3 0.247132 0.953187 0.848121
134 3 0.20263 0.832714 0.886666
520 2 0.222806 0.873222 0.870255
517 2 0.367124 0.801756 0.744485
89 3 0.420774 0.733267 0.863469
724 2 0.310065 0.894178 1.00616
259 2 0.403147 0.7703 0.836261
145 3 0.322573 0.819316 0.960218
350 2 0.239796 0.808958 0.910464
412 2 0.320089 0.855699 0.780278
697 2 0.361706 0.805094 0.934229
702 2 0.43519 0.981215 0.760489
173 3 0.365609 0.83737 0.778615
470 2 0.438538 0.900829 0.762838
63 3 0.464795 0.942043 0.752998
390 2 0.719314 0.982796 0.776191
461 2 0.704994 0.8801 0.882543
227 3 0.730456 0.867372 0.839817
626 2 0.674513 0.816127 0.963649
100 3 0.658541 0.860479 0.947003
575 2 0.691979 0.868731 0.804399
182 3 0.55597 0.965804 0.986309
699 2 0.501 0.773147 0.951
500 2 0.65135 0.889352 -0.0144372
607 2 0.584992 0.852278 0.905763
176 3 0.541484 0.847248 0.883815
267 2 0.520066 0.888091 0.899219
685 2 0.898614 0.778962 0.974848
723 2 0.824692 0.911852 0.734782
215 3 0.84261 0.908256 0.782099
609 2 0.753862 0.782848 0.869848
165 3 0.944645 0.975453 0.86519
622 2 0.935575 0.976116 0.91387
666 2 0.904787 0.96109 0.835836
722 2 0.890318 0.769486 0.903945
189 3 0.926731 0.777949 0.938121
273 2 0.799132 0.896987 0.813816
ITEM: TIMESTEP
19044700
ITEM: NUMBER OF ATOMS
768
ITEM: BOX BOUNDS pp pp pp
0.0000000000000000e+00 1.9730000000000000e+01
0.0000000000000000e+00 1.9730000000000000e+01
0.0000000000000000e+00 1.9730000000000000e+01
ITEM: ATOMS id type xs ys zs
550 2 0.157361 0.232046 0.205398
40 3 0.144862 0.187101 0.22507
266 2 0.0735149 0.101938 0.085117
426 2 0.104187 0.170665 0.199939
43 3 0.040213 0.130648 0.159141
318 2 0.0311669 0.0876157 0.181225
144 3 0.0940318 0.0913773 0.0429393
502 2 0.193291 0.138534 0.270019
552 2 0.120595 0.0502284 0.0511655
601 2 0.19964 0.0988472 0.0879527
330 2 0.176031 0.159796 0.996989
2 3 0.24313 0.118354 0.0806645
714 2 0.263877 0.127012 0.123621
302 2 0.359392 0.115179 0.198635
24 3 0.328697 0.148641 0.184584
729 2 0.338182 0.186281 0.213341
588 2 0.309873 0.0974875 0.0311933
360 2 0.384558 0.0678706 0.0267641
135 3 0.34763 0.0877424 -0.000657119
146 3 0.349773 0.0353975 0.264887
725 2 0.352411 0.221013 0.0602405
598 2 0.498895 1.00242 0.155552
411 2 0.531234 0.0981186 0.193114
220 3 0.519226 0.0102212 0.201796
126 3 0.379493 0.253648 0.0379566
257 2 0.308821 0.0292701 0.238842
41 3 0.546777 0.139333 0.175774
370 2 0.615099 0.175378 0.220112
763 2 0.572352 0.123809 0.136902
105 3 0.673646 0.161905 0.0459962
585 2 0.714461 0.179129 0.0747352
603 2 0.689531 0.0781044 1.00077
639 2 0.678315 0.175623 0.271535
12 3 0.629757 0.191006 0.263552
494 2 0.567697 0.989703 0.19672
26 3 0.635819 0.95464 0.222502
624 2 0.672372 0.98492 0.232573
767 2 0.644759 0.201806 0.0476765
150 3 0.700644 0.0334453 0.985314
287 2 0.997874 0.155839 0.151191
268 2 0.759103 0.0669171 0.248758
524 2 0.925526 0.21934 0.197874
572 2 0.81402 0.200277 0.0490852
25 3 0.779526 0.20488 0.121964
736 2 0.869579 0.208689 0.144106
636 2 0.775964 0.184955 0.197091
82 3 0.76508 0.158558 0.241097
164 3 0.921066 0.208775 0.149893
196 3 0.241737 0.483995 0.0834124
462 2 0.175387 0.324903 0.115337
5 3 0.105222 0.364266 0.0751849
61 3 0.191447 0.296802 0.153627
375 2 0.240561 0.30853 0.153086
457 2 0.0932897 0.412181 0.078402
754 2 0.0575439 0.320496 0.134015
496 2 0.0981435 0.348902 0.0259496
655 2 0.168481 0.497023 0.0334817
444 2 0.258618 0.489721 0.131878
34 3 0.122657 0.510562 0.0213647
431 2 0.277489 0.458586 0.0677737
119 3 0.265247 0.506884 0.233426
198 3 0.30625 0.361795 0.200533
501 2 0.292666 0.401056 0.225927
511 2 0.325518 0.382187 0.158473
125 3 0.351378 0.397289 0.0471111
525 2 0.400498 0.40425 0.0421385
320 2 0.340964 0.349187 0.0382949
31 3 0.453448 0.375835 0.250545
595 2 0.425139 0.244803 0.0556179
195 3 0.484103 0.257273 0.139594
765 2 0.456985 0.279135 0.174638
672 2 0.336104 0.280989 0.25544
362 2 0.50745 0.21975 0.161553
483 2 0.595467 0.322374 0.0456278
538 2 0.54444 0.441753 0.0890832
16 3 0.575704 0.280226 0.0324736
317 2 0.543836 0.263645 0.0639554
27 3 0.582613 0.445019 0.118952
59 3 0.704891 0.428122 0.0368092
391 2 0.695819 0.409984 0.989649
680 2 0.62284 0.443304 0.094115
512 2 0.593459 0.43232 0.208252
225 3 0.482418 0.437246 0.0260231
653 2 0.712937 0.474789 0.0327552
276 2 0.775186 0.254081 0.124371
331 2 0.766059 0.390432 0.0836062
203 3 0.805346 0.368167 0.112638
258 2 0.842312 0.378829 0.0787256
737 2 0.813999 0.356242 0.190231
478 2 0.000568529 0.276019 0.156307
217 3 0.890614 0.436744 0.035733
353 2 0.922511 0.478877 0.0461577
214 3 0.0351039 0.307785 0.176219
516 2 0.990689 0.366664 0.204351
128 3 0.962818 0.410825 0.206587
682 2 0.935041 0.403541 0.246944
554 2 0.924085 0.337667 1.00491
441 2 0.230041 0.515124 0.266462
282 2 0.02297 0.530604 0.061301
46 3 0.0525864 0.657857 0.183825
468 2 0.0401693 0.609907 0.189147
635 2 0.0938972 0.661716 0.212025
284 2 0.251704 0.649932 0.18298
567 2 0.994898 0.518804 0.136465
239 3 0.996217 0.741333 0.0879638
402 2 0.00885175 0.702481 0.118393
336 2 0.0292579 0.737041 0.0520089
147 3 0.289305 0.649219 0.148556
359 2 0.330561 0.633993 0.170966
95 3 0.192157 0.656634 0.245078
158 3 0.981912 0.525153 0.0885445
75 3 0.0143508 0.535009 0.24143
389 2 0.188687 0.621373 0.279624
396 2 0.199693 0.700095 0.268971
349 2 0.264696 0.593728 0.0293354
361 2 0.29198 0.547439 0.229542
28 3 0.445928 0.656694 0.162661
423 2 0.40879 0.607571 0.229511
673 2 0.436756 0.698753 0.18476
676 2 0.433056 0.666183 0.112468
660 2 0.529631 0.610684 0.166689
323 2 0.290579 0.730324 0.102318
73 3 0.420196 0.660014 0.034246
398 2 0.471265 0.726309 0.0037443
3 3 0.581363 0.600017 0.164585
711 2 0.578041 0.561583 0.134265
420 2 0.622447 0.68734 0.162596
351 2 0.645014 0.76273 0.139358
44 3 0.656557 0.722395 0.16873