3
MD step # 1
     8               0               0               0
     1               0               0               1
     1               1               0               0
3
MD step # 2
     8       0.0098526       -0.010252      0.00775278
     1      0.00902162       0.0209326         1.00881
     1        0.979909      0.00326367    -0.000568258
3
MD step # 3
     8       0.0204413        -0.02046       0.0170264
     1      0.00842377       0.0412889         1.00349
     1        0.957861      0.00618692       -0.011051
3
MD step # 4
     8       0.0307905      -0.0306171       0.0275601
     1     -0.00116743       0.0607502        0.988243
     1        0.948706      0.00886809      -0.0314975
3
MD step # 5
     8       0.0402414      -0.0407687       0.0387794
     1       -0.018291       0.0797025        0.971504
     1        0.961366       0.0117149      -0.0612671
3
MD step # 6
     8       0.0490025       -0.050985       0.0498763
     1      -0.0407634       0.0994186        0.963259
     1         0.99019       0.0148268      -0.0976526
3
MD step # 7
     8       0.0578482      -0.0613165       0.0601546
     1      -0.0658268        0.121356        0.969128
     1         1.02007       0.0178029       -0.135361
3
MD step # 8
     8       0.0673968      -0.0717435       0.0694564
     1      -0.0899761         0.14574        0.985584
     1         1.03769       0.0202527       -0.168347
3
MD step # 9
     8       0.0777977      -0.0821782       0.0781162
     1       -0.109141        0.171128         1.00272
     1         1.03669       0.0222066       -0.191938
3
MD step # 10
     8        0.088775      -0.0925465       0.0866105
     1       -0.119701        0.195435          1.0109
     1         1.01793       0.0242716       -0.203953
3
MD step # 11
     8        0.099711       -0.102851       0.0953401
     1       -0.119496        0.217138         1.00481
     1          0.9892       0.0278105       -0.205316
3
MD step # 12
     8        0.109729        -0.11324        0.104564
     1       -0.108377        0.236087        0.984626
     1        0.964326       0.0351317       -0.200259
3
MD step # 13
     8        0.118046       -0.124014        0.114277
     1      -0.0884052        0.254205        0.956312
     1        0.957761       0.0490062       -0.194649
3
MD step # 14
     8        0.124642       -0.135516        0.123995
     1      -0.0634438        0.275861        0.930671
     1        0.973646       0.0705922       -0.191599
3
MD step # 15
     8        0.130396       -0.147903         0.13293
     1      -0.0374671        0.306179        0.918162
     1         1.00186       0.0975542       -0.189223
3
MD step # 16
     8        0.136355       -0.160941        0.140737
     1      -0.0123708        0.346345        0.920487
     1         1.02763        0.125238       -0.183854
3
MD step # 17
     8        0.143169       -0.173999        0.147816
     1       0.0119457        0.390936        0.929154
     1         1.04052        0.149054       -0.173395
3
MD step # 18
     8        0.151074       -0.186341        0.154869
     1       0.0356077        0.431364         0.93329
     1          1.0366        0.165774        -0.15813
3
MD step # 19
     8        0.159995       -0.197441        0.162485
     1       0.0577069        0.460445        0.926008
     1         1.01801        0.174059       -0.140514
3
MD step # 20
     8        0.169569       -0.207132        0.171042
     1       0.0763881        0.474455        0.905821
     1        0.992432         0.17486        -0.12498
3
MD step # 21
     8        0.179208       -0.215639        0.180705
     1        0.089219        0.473807        0.876161
     1        0.971736        0.171382        -0.11747
3
MD step # 22
     8         0.18838       -0.223497        0.191348
     1       0.0936187         0.46351        0.844662
     1        0.967015        0.167233       -0.123549
3
MD step # 23
     8        0.197076       -0.231305        0.202443
     1       0.0874679        0.452694        0.821405
     1         0.98059        0.162852       -0.144851
3
MD step # 24
     8        0.205876       -0.239415        0.213222
     1       0.0699824        0.450602        0.814281
     1         1.00397        0.154693       -0.177176
3
MD step # 25
     8        0.215444       -0.247706         0.22321
     1       0.0427736        0.459485        0.823026
     1         1.02487        0.138725       -0.212888
3
MD step # 26
     8        0.226082       -0.255663        0.232477
     1       0.0101824        0.472749        0.839103
     1         1.03403        0.113341       -0.244687
3
MD step # 27
     8        0.237672       -0.262784        0.241386
     1      -0.0221145        0.481098        0.852047
     1          1.0276       0.0797363       -0.267878
3
MD step # 28
     8         0.24979       -0.268889        0.250336
     1      -0.0490393        0.478131         0.85443
     1         1.00722       0.0413596       -0.281372
3
MD step # 29
     8        0.261815       -0.274194        0.259735
     1      -0.0673366        0.462063        0.843182
     1         0.97972      0.00333675       -0.288337
3
MD step # 30
     8        0.273051       -0.279267        0.269957
     1      -0.0763623        0.436009        0.819613
     1        0.955614       -0.028524       -0.295977
3
MD step # 31
     8        0.283119       -0.284916        0.281133
     1      -0.0788907        0.408436        0.789434
     1        0.943818      -0.0499169        -0.31194
3
MD step # 32
     8        0.292387       -0.291997        0.292802
     1      -0.0811032        0.392316        0.761483
     1         0.94461      -0.0603065       -0.337706
3
MD step # 33
     8        0.301745        -0.30103        0.304146
     1      -0.0890936          0.3986        0.742318
     1        0.949889      -0.0624135       -0.366899
3
MD step # 34
     8        0.311757       -0.311706        0.314737
     1       -0.102745         0.42599        0.729914
     1        0.950432       -0.059726       -0.390906
3
MD step # 35
     8        0.322357       -0.323022        0.324699
     1       -0.115705        0.461541         0.71635
     1        0.940773      -0.0550471       -0.403915
3
MD step # 36
     8        0.333183       -0.333953        0.334336
     1       -0.121284        0.490984         0.69526
     1         0.91996      -0.0502431       -0.404413
3
MD step # 37
     8        0.343835       -0.343849        0.343953
     1       -0.115999        0.504913        0.664676
     1        0.890941      -0.0462288       -0.395225
3
MD step # 38
     8        0.353962       -0.352496        0.353861
     1       -0.100078        0.499877        0.626482
     1        0.859643      -0.0429729       -0.383093
3
MD step # 39
     8        0.363373       -0.360096        0.364325
     1      -0.0773723        0.478584        0.585427
     1        0.833118      -0.0400404       -0.376802
3
MD step # 40
     8        0.372222         -0.3672        0.375334
     1      -0.0552975        0.450385        0.548071
     1        0.816356      -0.0381454       -0.382715
3
MD step # 41
     8        0.381069       -0.374499        0.386459
     1      -0.0433255        0.429338        0.520773
     1        0.809867      -0.0404206       -0.400385
3
MD step # 42
     8        0.390515       -0.382364        0.397064
     1      -0.0479963        0.425618          0.5068
     1        0.810509      -0.0512477        -0.42314
3
MD step # 1
     8               0               0               0
     1               0               0               1
     1               1               0               0
3
MD step # 2
     8       0.0098526       -0.010252      0.00775278
     1      0.00902162       0.0209326         1.00881
     1        0.979909      0.00326367    -0.000568258
3
MD step # 3
     8       0.0204413        -0.02046       0.0170264
     1      0.00842377       0.0412889         1.00349
     1        0.957861      0.00618692       -0.011051
3
MD step # 4
     8       0.0307905      -0.0306171       0.0275601
     1     -0.00116743       0.0607502        0.988243
     1        0.948706      0.00886809      -0.0314975
3
MD step # 5
     8       0.0402414      -0.0407687       0.0387794
     1       -0.018291       0.0797025        0.971504
     1        0.961366       0.0117149      -0.0612671
3
MD step # 6
     8       0.0490025       -0.050985       0.0498763
     1      -0.0407634       0.0994186        0.963259
     1         0.99019       0.0148268      -0.0976526
3
MD step # 7
     8       0.0578482      -0.0613165       0.0601546
     1      -0.0658268        0.121356        0.969128
     1         1.02007       0.0178029       -0.135361
3
MD step # 8
     8       0.0673968      -0.0717435       0.0694564
     1      -0.0899761         0.14574        0.985584
     1         1.03769       0.0202527       -0.168347
3
MD step # 9
     8       0.0777977      -0.0821782       0.0781162
     1       -0.109141        0.171128         1.00272
     1         1.03669       0.0222066       -0.191938
3
MD step # 10
     8        0.088775      -0.0925465       0.0866105
     1       -0.119701        0.195435          1.0109
     1         1.01793       0.0242716       -0.203953
3
MD step # 11
     8        0.099711       -0.102851       0.0953401
     1       -0.119496        0.217138         1.00481
     1          0.9892       0.0278105       -0.205316
3
MD step # 12
     8        0.109729        -0.11324        0.104564
     1       -0.108377        0.236087        0.984626
     1        0.964326       0.0351317       -0.200259
3
MD step # 13
     8        0.118046       -0.124014        0.114277
     1      -0.0884052        0.254205        0.956312
     1        0.957761       0.0490062       -0.194649
3
MD step # 14
     8        0.124642       -0.135516        0.123995
     1      -0.0634438        0.275861        0.930671
     1        0.973646       0.0705922       -0.191599
3
MD step # 15
     8        0.130396       -0.147903         0.13293
     1      -0.0374671        0.306179        0.918162
     1         1.00186       0.0975542       -0.189223
3
MD step # 16
     8        0.136355       -0.160941        0.140737
     1      -0.0123708        0.346345        0.920487
     1         1.02763        0.125238       -0.183854
3
MD step # 17
     8        0.143169       -0.173999        0.147816
     1       0.0119457        0.390936        0.929154
     1         1.04052        0.149054       -0.173395
3
MD step # 1
     8               0               0               0
     1               0               0               1
     1               1               0               0
3
MD step # 2
     8      0.00908324      0.00211508      0.00487367
     1        -0.03288    -0.000735995        0.959396
     1        0.990113     -0.00839466      0.00195702
3
MD step # 3
     8       0.0191943      0.00422127       0.0100579
     1      -0.0748584     -0.00138631        0.922652
     1        0.973118      -0.0166838     -0.00476831
3
MD step # 4
     8       0.0296884      0.00633399       0.0142264
     1       -0.126247     -0.00202032        0.908968
     1        0.959542      -0.0249929      -0.0183071
3
MD step # 5
     8        0.039813      0.00849157       0.0169292
     1        -0.18583     -0.00278577        0.922524
     1        0.960036      -0.0337284      -0.0357019
3
MD step # 6
     8       0.0489317       0.0107268       0.0189268
     1       -0.247231      -0.0037339        0.947463
     1        0.978227      -0.0433036       -0.053171
3
MD step # 7
     8       0.0568837        0.013039        0.021168
     1        -0.30113     -0.00485552        0.964571
     1         1.00729      -0.0536907      -0.0665697
3
MD step # 8
     8       0.0639425       0.0154018       0.0241232
     1       -0.339886     -0.00619174        0.962612
     1         1.03523       -0.064375      -0.0721255
3
MD step # 9
     8       0.0704882       0.0177854       0.0277904
     1       -0.359498     -0.00787739        0.938983
     1         1.05203      -0.0747287      -0.0672261
3
MD step # 10
     8       0.0768409       0.0201818       0.0317925
     1       -0.360235      -0.0101792        0.898548
     1         1.05293      -0.0843631      -0.0507846
3
MD step # 11
     8       0.0832711       0.0226284       0.0353465
     1       -0.347625      -0.0136145          0.8541
     1          1.0392      -0.0933736      -0.0232221
3
MD step # 12
     8       0.0899886       0.0252342       0.0372915
     1       -0.332624      -0.0191101        0.825638
     1         1.01854       -0.102585       0.0138437
3
MD step # 13
     8       0.0968582       0.0281694       0.0366971
     1       -0.325916      -0.0277133        0.829889
     1         1.00388       -0.113664       0.0584318
3
MD step # 14
     8        0.103181       0.0315432       0.0338724
     1       -0.327813      -0.0393789        0.863208
     1         1.00668       -0.128395         0.10929
3
MD step # 15
     8        0.108459       0.0352556       0.0301496
     1       -0.330031      -0.0524814        0.905514
     1         1.02661       -0.146845        0.165395
3
MD step # 16
     8        0.113015       0.0390176       0.0268927
     1       -0.325424      -0.0648978         0.93807
     1         1.05135       -0.166603        0.223883
3
MD step # 17
     8        0.117556       0.0425056       0.0250661
     1        -0.31149      -0.0748982        0.950424
     1         1.06717       -0.184338        0.279937
3
MD step # 18
     8        0.122682        0.045483       0.0251662
     1       -0.289759      -0.0814194        0.939794
     1         1.06602       -0.197444        0.328478
3
MD step # 19
     8        0.128777        0.047851        0.027184
     1       -0.265212       -0.084227        0.910311
     1         1.04671       -0.204665        0.365516
3
MD step # 20
     8        0.136041       0.0496815       0.0305228
     1       -0.246376       -0.084193        0.873455
     1         1.01453       -0.206335        0.389009
3
MD step # 21
     8        0.144458       0.0512334       0.0340488
     1       -0.244417      -0.0832851        0.846331
     1        0.980832       -0.204643        0.399798
3
MD step # 22
     8         0.15359       0.0528553       0.0367081
     1       -0.267752      -0.0831582        0.841296
     1        0.960912       -0.203495        0.402202
3
MD step # 23
     8        0.162535       0.0547437       0.0384546
     1        -0.31399      -0.0831149         0.85316
     1         0.96669       -0.206728        0.402117
3
MD step # 24
     8        0.170588       0.0567964       0.0401784
     1       -0.370689       -0.080956        0.864961
     1        0.997031       -0.214941        0.402367
3
MD step # 25
     8        0.177741       0.0587219       0.0428693
     1       -0.423903      -0.0752155         0.86255
     1         1.03821       -0.225002        0.401375
3
MD step # 26
     8        0.184369         0.06026       0.0470805
     1       -0.463553      -0.0657644        0.839622
     1         1.07425       -0.232948        0.396636
3
MD step # 27
     8        0.190853        0.061304       0.0528314
     1       -0.484689      -0.0534976        0.796679
     1         1.09416        -0.23623        0.387285
3
MD step # 28
     8        0.197519        0.061921       0.0596518
     1       -0.488116      -0.0400969        0.739992
     1          1.0936       -0.234257        0.374456
3
MD step # 29
     8        0.204719       0.0623538       0.0666006
     1       -0.481914      -0.0279621        0.681549
     1           1.075       -0.228487        0.361072
3
MD step # 30
     8        0.212783       0.0630179       0.0723871
     1       -0.481299      -0.0198693        0.637103
     1         1.04832       -0.222729        0.351874
3
MD step # 31
     8        0.221505       0.0644145       0.0759456
     1       -0.499369      -0.0177441        0.617379
     1         1.02984       -0.222988        0.353165
3
MD step # 32
     8        0.229825        0.066871       0.0771689
     1        -0.53268      -0.0214143        0.618772
     1         1.03291       -0.234648        0.370317
3
MD step # 33
     8         0.23693       0.0702664       0.0768358
     1       -0.565053      -0.0292908        0.629152
     1         1.05421       -0.257386        0.403142
3
MD step # 34
     8        0.242982       0.0741103       0.0759717
     1        -0.58209       -0.039692        0.638354
     1         1.07675       -0.285123        0.445532
3
MD step # 35
     8        0.248544       0.0778891       0.0753913
     1        -0.57689      -0.0512907        0.641035
     1         1.08473       -0.310968        0.489889
3
MD step # 36
     8        0.254145       0.0812467       0.0755554
     1       -0.549802      -0.0631833         0.63597
     1         1.07014       -0.330155         0.53012
3
MD step # 37
     8        0.260259       0.0840361       0.0765439
     1       -0.507954      -0.0750798         0.62565
     1         1.03262       -0.340561        0.562471
3
MD step # 38
     8        0.267339       0.0863581       0.0780206
     1       -0.465081      -0.0876184        0.616249
     1        0.978734       -0.342968         0.58613
3
MD step # 39
     8        0.275616       0.0885657        0.079299
     1       -0.437969       -0.102081        0.615402
     1         0.92167       -0.341709        0.604377
3
MD step # 40
     8        0.284651        0.091128       0.0797552
     1       -0.436451       -0.118431        0.625571
     1         0.87834       -0.344243        0.624703
3
MD step # 41
     8         0.29344        0.094226       0.0794124
     1       -0.456145       -0.133585        0.639832
     1         0.86025       -0.356457        0.653659
3
MD step # 42
     8        0.301317       0.0974682       0.0790907
     1       -0.484393       -0.143193        0.647504
     1        0.865311       -0.376422        0.688905
3
MD step # 43
     8         0.30822        0.100166       0.0798807
     1       -0.509315       -0.144206        0.640909
     1        0.882537       -0.396181        0.720807
3
MD step # 44
     8        0.314354        0.101782       0.0825408
     1       -0.523524        -0.13559        0.617063
     1        0.901241       -0.408209         0.74032
3
MD step # 45
     8        0.320002        0.102107       0.0872996
     1        -0.52478       -0.118109         0.57708
     1        0.914658       -0.408384        0.742749
3
MD step # 46
     8        0.325545        0.101261       0.0938717
     1       -0.516488      -0.0941415        0.525606
     1        0.920107       -0.396205        0.728042
3
MD step # 47
     8        0.331497       0.0996801        0.101495
     1       -0.508228      -0.0674522        0.470166
     1        0.919016       -0.374866         0.70085
3
MD step # 48
     8        0.338283       0.0980835        0.109051
     1       -0.512929      -0.0421251        0.418696
     1        0.917579       -0.351689        0.670992
3
MD step # 49
     8        0.345679       0.0972747        0.115441
     1       -0.536936      -0.0205876        0.375154
     1         0.92572       -0.337041        0.651919
3
MD step # 50
     8        0.352786       0.0977348        0.120133
     1       -0.572159     -0.00310807        0.338485
     1        0.949655       -0.338328        0.653081
3
MD step # 51
     8        0.359043       0.0993041        0.123429
     1       -0.603114       0.0105602        0.306593
     1        0.982831       -0.353234         0.67168
3
MD step # 52
     8        0.364614        0.101445        0.126045
     1       -0.617641        0.020207        0.278843
     1         1.01056       -0.372996        0.696966
3
MD step # 53
     8        0.369947        0.103699         0.12855
     1       -0.610738       0.0253075        0.255817
     1          1.0207       -0.389746        0.719268
3
MD step # 54
     8        0.375543        0.105835        0.131212
     1       -0.584644       0.0252742        0.238567
     1         1.00758       -0.399201        0.733232
3
MD step # 55
     8        0.381949        0.107853        0.134028
     1       -0.548593       0.0195223        0.228107
     1        0.971726       -0.400735        0.737876
3
MD step # 56
     8        0.389683        0.110002        0.136723
     1       -0.517269       0.0074868        0.224978
     1         0.91957       -0.397694        0.736965
3
MD step # 57
     8        0.398842        0.112788         0.13875
     1       -0.504042      -0.0109384        0.228589
     1        0.862858       -0.397979        0.739728
3
MD step # 58
     8        0.408757        0.116732        0.139526
     1       -0.510772      -0.0342794         0.23663
     1        0.813978       -0.411376        0.757701
3
MD step # 59
     8        0.418499        0.121777        0.139078
     1       -0.527059      -0.0590462        0.245506
     1        0.777211       -0.440484        0.794084
3
MD step # 60
     8        0.427525        0.127085         0.13828
     1       -0.539788      -0.0810252        0.251645
     1        0.748077       -0.476269        0.838591
3
MD step # 61
     8        0.435606        0.131651        0.138191
     1       -0.540171      -0.0967469        0.252369
     1        0.721515       -0.506306        0.877115
3
MD step # 62
     8        0.442681        0.134799         0.13952
     1       -0.525392       -0.104109        0.246033
     1         0.69577       -0.522037        0.900093
3
MD step # 63
     8        0.448883        0.136267        0.142546
     1       -0.498441       -0.102531        0.231837
     1        0.671804       -0.519965        0.903858
3
MD step # 64
     8         0.45459        0.136189        0.147176
     1       -0.467878      -0.0929968        0.209552
     1        0.652242       -0.501212        0.890123
3
MD step # 65
     8        0.460354        0.135085        0.152939
     1       -0.446128      -0.0777353        0.179131
     1        0.640758       -0.471843        0.866371
3
MD step # 66
     8        0.466556        0.133819        0.158976
     1        -0.44328      -0.0589313        0.140416
     1        0.641371        -0.44336         0.84641
3
MD step # 67
     8        0.472971        0.133279        0.164253
     1       -0.458348      -0.0373003       0.0939549
     1        0.656663       -0.429172        0.846141
3
MD step # 68
     8        0.478952         0.13375        0.168278
     1       -0.479095      -0.0127397        0.042611
     1        0.684599        -0.43388        0.870614
3
MD step # 69
     8         0.48408        0.134718        0.171491
     1       -0.491386       0.0140565     -0.00868758
     1        0.717645        -0.44862        0.907963
3
MD step # 70
     8        0.488354        0.135511        0.174634
     1       -0.486296       0.0413402      -0.0548878
     1        0.746844       -0.461014        0.941414
3
MD step # 71
     8        0.492058        0.135767        0.178203
     1       -0.461697       0.0668857      -0.0923631
     1        0.765524       -0.463105        0.959528
3
MD step # 72
     8        0.495685        0.135458          0.1824
     1        -0.42193       0.0885082       -0.119799
     1         0.77017       -0.452254        0.957771
3
MD step # 73
     8         0.49991        0.134828        0.187211
     1       -0.377331        0.104453        -0.13886
     1        0.760377       -0.430568         0.93806
3
MD step # 74
     8        0.505426        0.134405        0.192333
     1       -0.341911        0.113757       -0.154082
     1        0.739106       -0.405511        0.909757
3
MD step # 75
     8        0.512527        0.135039        0.196959
     1        -0.32631        0.116377       -0.170278
     1        0.712337       -0.390475        0.890437
3
MD step # 76
     8        0.520846        0.137536        0.200029
     1       -0.329862        0.112856       -0.188259
     1         0.68526       -0.398854        0.897697
3
MD step # 77
     8        0.529799        0.141801         0.20138
     1       -0.342242         0.10397       -0.204315
     1        0.656962        -0.42993         0.93041
3
MD step # 78
     8        0.538905         0.14682        0.201927
     1       -0.351843       0.0907792       -0.213856
     1        0.623577       -0.468759        0.969415
3
MD step # 79
     8        0.547749        0.151552        0.202655
     1       -0.350951       0.0747229       -0.214266
     1        0.584044       -0.500324        0.996484
3
MD step # 80
     8        0.556032         0.15533        0.204179
     1       -0.336916       0.0574937       -0.205747
     1        0.540415       -0.515802         1.00204
3
MD step # 81
     8        0.563667        0.157853         0.20681
     1       -0.312057       0.0407815        -0.19134
     1        0.496318       -0.512139        0.984183
3
MD step # 82
     8        0.570825        0.159162        0.210609
     1       -0.283201       0.0260329       -0.176749
     1        0.455786       -0.491461        0.947608
3
MD step # 83
     8        0.577887        0.159703        0.215286
     1       -0.259684       0.0144194       -0.169419
     1        0.422012       -0.461976        0.904307
3
MD step # 84
     8        0.585243        0.160312        0.220054
     1       -0.248303      0.00720959       -0.175884
     1        0.395559       -0.438248        0.873239
3
MD step # 85
     8        0.592961        0.161766        0.223948
     1       -0.247907      0.00609126       -0.198154
     1        0.374137       -0.434272        0.871704
3
MD step # 86
     8        0.600562        0.163954        0.226731
     1       -0.249998       0.0125354       -0.232501
     1        0.356901       -0.449727        0.899694
3
MD step # 87
     8        0.607258        0.165985        0.228995
     1       -0.244705       0.0268627       -0.271995
     1        0.346549        -0.47079        0.940886
3
MD step # 88
     8        0.612478         0.16706        0.231406
     1       -0.225536       0.0480992       -0.309937
     1        0.345733       -0.483764        0.977991
3
MD step # 89
     8         0.61609         0.16682        0.234378
     1       -0.190843       0.0743497       -0.341882
     1        0.354972       -0.481074         1.00003
3
MD step # 90
     8        0.618386        0.165303        0.238114
     1       -0.143694         0.10322       -0.366562
     1        0.372763       -0.460898         1.00251
3
MD step # 91
     8        0.620018         0.16287        0.242652
     1      -0.0911247        0.132265       -0.386292
     1        0.395802        -0.42657        0.987171
3
MD step # 92
     8        0.621892        0.160231        0.247715
     1       -0.042088        0.159526       -0.406253
     1        0.418735       -0.387402        0.963586
3
MD step # 93
     8        0.624899        0.158424        0.252459
     1     -0.00338138        0.183839       -0.431231
     1        0.434232       -0.358746        0.949967
3
MD step # 94
     8        0.629526         0.15835        0.255821
     1       0.0238332        0.204403       -0.461193
     1        0.435791       -0.354083         0.96322
3
MD step # 95
     8        0.635597        0.159918        0.257734
     1       0.0429388        0.220145        -0.49081
     1        0.422825       -0.370903        0.999086
3
MD step # 96
     8        0.642547        0.162272        0.259115
     1        0.058182        0.229847       -0.513234
     1        0.400029       -0.394406         1.03622
3
MD step # 97
     8        0.649862        0.164652        0.260817
     1       0.0724035        0.232702       -0.523585
     1        0.372666       -0.411669          1.0562
3
MD step # 98
     8        0.657234         0.16664        0.263316
     1       0.0864758        0.228652        -0.52045
     1        0.344616       -0.415993         1.05009
3
MD step # 99
     8         0.66457        0.168098        0.266809
     1       0.0994427        0.218474       -0.506146
     1         0.31819       -0.405929          1.0171
3
MD step # 100
     8        0.671992        0.169143        0.271242
     1        0.109017        0.203719       -0.486267
     1        0.293608       -0.384884        0.963706
3
MD step # 101
     8        0.679863        0.170213         0.27618
     1        0.112755        0.186538       -0.468143
     1        0.267526       -0.361926        0.904172
3
MD step # 102
     8        0.688689        0.171983        0.280821
     1        0.110005        0.169387        -0.45793
     1        0.232596       -0.350197        0.857409
3
MD step # 103
     8        0.698609        0.174772        0.284607
     1        0.103399         0.15462       -0.457755
     1        0.184056        -0.35712        0.834424
3
MD step # 104
     8         0.70886        0.178035        0.287743
     1       0.0982484        0.144092        -0.46525
     1        0.128834       -0.375817        0.829593
3
MD step # 1
     8               0               0               0
     1               0               0               1
     1               1               0               0
3
MD step # 2
     8     0.000954048      0.00238419     -0.00144057
     1      -0.0218298      -0.0103224        0.984899
     1        0.973437      -0.0030176      -0.0162692
3
MD step # 3
     8      0.00266867      0.00475288       -0.001738
     1      -0.0520817      -0.0204749        0.960439
     1        0.943321      -0.0059001      -0.0412454
3
MD step # 4
     8      0.00419256        0.007117      -0.0014841
     1      -0.0892602      -0.0305121        0.934891