3
ion step # 1
     8  +9.8526014879586291e-03  -1.0251997162003090e-02  +7.7527775702439057e-03  
     1  +9.0216182984982560e-03  +2.0932618294076340e-02  +1.0088052108576246e+00  
     1  +9.7990880222011556e-01  +3.2636681098523680e-03  -5.6825846522959344e-04  
3
ion step # 2
     8  +2.0441330074498342e-02  -2.0460034382505113e-02  +1.7026386876142243e-02  
     1  +8.4237720814267034e-03  +4.1288853105696494e-02  +1.0034880355647353e+00  
     1  +9.5786140673781706e-01  +6.1869221244253269e-03  -1.1050976175649796e-02  
3
ion step # 3
     8  +3.0790465837455844e-02  -3.0617079489679448e-02  +2.7560126495379429e-02  
     1  -1.1674269378709418e-03  +6.0750159239318646e-02  +9.8824318198873162e-01  
     1  +9.4870647975347211e-01  +8.8680869185891690e-03  -3.1497513416570658e-02  
3
ion step # 4
     8  +4.0241418041412201e-02  -4.0768698149994863e-02  +3.8779443859676521e-02  
     1  -1.8290967294222721e-02  +7.9702540659365426e-02  +9.7150366641872687e-01  
     1  +9.6136580795454540e-01  +1.1714935724987736e-02  -6.1267050873754260e-02  
3
ion step # 5
     8  +4.9002468071174220e-02  -5.0984987950997582e-02  +4.9876287855629774e-02  
     1  -4.0763421996248196e-02  +9.9418581304201586e-02  +9.6325946051545097e-01  
     1  +9.9019028067900550e-01  +1.4826843500685673e-02  -9.7652605852855179e-02  
3
ion step # 6
     8  +5.7848249920815317e-02  -6.1316523944118913e-02  +6.0154646661219800e-02  
     1  -6.5826817668950821e-02  +1.2135569986576700e-01  +9.6912788976903830e-01  
     1  +1.0200665400879547e+00  +1.7802938323619528e-02  -1.3536086221811500e-01  
3
ion step # 7
     8  +6.7396822310459945e-02  -7.1743515904183652e-02  +6.9456377916235310e-02  
     1  -8.9976149607249103e-02  +1.4573982199375188e-01  +9.8558387237043632e-01  
     1  +1.0376944721609853e+00  +2.0252724523396704e-02  -1.6834694004768197e-01  
3
ion step # 8
     8  +7.7797664865772539e-02  -8.2178167056979529e-02  +7.8116232332094082e-02  
     1  -1.0914137687165365e-01  +1.7112801005586620e-01  +1.0027177105034208e+00  
     1  +1.0366914771462694e+00  +2.2206563088653066e-02  -1.9193840082004437e-01  
3
ion step # 9
     8  +8.8774963885414768e-02  -9.2546464732283312e-02  +8.6610476290375563e-02  
     1  -1.1970106904561155e-01  +1.9543536847237022e-01  +1.0109022560242480e+00  
     1  +1.0179271566310601e+00  +2.4271572883900423e-02  -2.0395346089564029e-01  
3
ion step # 10
     8  +9.9711019732900141e-02  -1.0285078561688289e-01  +9.5340121887793672e-02  
     1  -1.1949566581716897e-01  +2.1713842173876896e-01  +1.0048135293992730e+00  
     1  +9.8920025368808939e-01  +2.7810468119772263e-02  -2.0531615448292898e-01  
3
ion step # 11
     8  +1.0972851470321603e-01  -1.1324000569847638e-01  +1.0456381756667629e-01  
     1  -1.0837667254877149e-01  +2.3608658934371715e-01  +9.8462584828867816e-01  
     1  +9.6432643863015333e-01  +3.5131672894874351e-02  -2.0025917049883682e-01  
3
ion step # 12
     8  +1.1804559111564311e-01  -1.2401409343803214e-01  +1.1427690713972867e-01  
     1  -8.8405220292619741e-02  +2.5420531174928113e-01  +9.5631212373260210e-01  
     1  +9.5776121573950235e-01  +4.9006155935587478e-02  -1.9464906760695827e-01  
3
ion step # 13
     8  +1.2464195673032359e-01  -1.3551574700583879e-01  +1.2399452186123766e-01  
     1  -6.3443845257794951e-02  +2.7586098796526759e-01  +9.3067091687140702e-01  
     1  +9.7364589020972803e-01  +7.0592246930065425e-02  -1.9159878299605126e-01  
3
ion step # 14
     8  +1.3039619590996002e-01  -1.4790265196269084e-01  +1.3293027028441345e-01  
     1  -3.7467096556258503e-02  +3.0617922187200924e-01  +9.1816223068927760e-01  
     1  +1.0018585812781835e+00  +9.7554212826720083e-02  -1.8922332253132251e-01  
3
ion step # 15
     8  +1.3635492104433566e-01  -1.6094123797681570e-01  +1.4073711719605925e-01  
     1  -1.2370802506997108e-02  +3.4634484225557277e-01  +9.2048748939588709e-01  
     1  +1.0276284443077035e+00  +1.2523791109041588e-01  -1.8385428862101758e-01  
3
ion step # 16
     8  +1.4316853671231183e-01  -1.7399918708047246e-01  +1.4781640026141576e-01  
     1  +1.1945682322719461e-02  +3.9093562057549108e-01  +9.2915425058663381e-01  
     1  +1.0405175313812007e+00  +1.4905376482892030e-01  -1.7339482543507198e-01  
3
ion step # 17
     8  +1.5107447316723963e-01  -1.8634120403782475e-01  +1.5486941656682399e-01  
     1  +3.5607708771774431e-02  +4.3136409612329274e-01  +9.3329018549844922e-01  
     1  +1.0366035311484729e+00  +1.6577384341365609e-01  -1.5812988774640668e-01  
3
ion step # 18
     8  +1.5999493239675674e-01  -1.9744089283224328e-01  +1.6248469900856347e-01  
     1  +5.7706907173879225e-02  +4.6044455961953645e-01  +9.2600807593156109e-01  
     1  +1.0180143113464644e+00  +1.7405869654061379e-01  -1.4051423580448466e-01  
3
ion step # 19
     8  +1.6956883982626822e-01  -2.0713186292123947e-01  +1.7104160285659584e-01  
     1  +7.6388102442141184e-02  +4.7445527164642687e-01  +9.0582072652152601e-01  
     1  +9.9243164152634744e-01  +1.7486033134469306e-01  -1.2497960666079067e-01  
3
ion step # 20
     8  +1.7920776188901641e-01  -2.1563851866696274e-01  +1.8070469354556731e-01  
     1  +8.9219013769510996e-02  +4.7380731558078626e-01  +8.7616052890372320e-01  
     1  +9.7173633128383663e-01  +1.7138232411488344e-01  -1.1746997391472609e-01  
3
ion step # 21
     8  +1.8838006616634398e-01  -2.2349732152608523e-01  +1.9134807497787823e-01  
     1  +9.3618723588629493e-02  +4.6351021509627288e-01  +8.4466204399842881e-01  
     1  +9.6701529105860207e-01  +1.6723280891078518e-01  -1.2354899161434223e-01  
3
ion step # 22
     8  +1.9707575423943399e-01  -2.3130543154998881e-01  +2.0244254637685499e-01  
     1  +8.7467859361473499e-02  +4.5269358541369675e-01  +8.2140540633353376e-01  
     1  +9.8058972527903820e-01  +1.6285244583300884e-01  -1.4485081929475008e-01  
3
ion step # 23
     8  +2.0587576626167783e-01  -2.3941463296691806e-01  +2.1322177350223742e-01  
     1  +6.9982356067109966e-02  +4.5060173299748452e-01  +8.1428115985138105e-01  
     1  +1.0039727422559890e+00  +1.5469253576967290e-01  -1.7717592639114124e-01  
3
ion step # 24
     8  +2.1544394735534239e-01  -2.4770563995015749e-01  +2.2320965229352760e-01  
     1  +4.2773606852714627e-02  +4.5948486378935283e-01  +8.2302607586300791e-01  
     1  +1.0248691558562932e+00  +1.3872478996088708e-01  -2.1288767431512842e-01  
3
ion step # 25
     8  +2.2608215758016598e-01  -2.5566321278300674e-01  +2.3247731573049801e-01  
     1  +1.0182364852613238e-02  +4.7274938013138967e-01  +8.3910335015297777e-01  
     1  +1.0340322534991124e+00  +1.1334057227062630e-01  -2.4468661832154279e-01  
3
ion step # 26
     8  +2.3767194639879050e-01  -2.6278432538037216e-01  +2.4138620385919274e-01  
     1  -2.2114470251187839e-02  +4.8109810378179679e-01  +8.5204699598427658e-01  
     1  +1.0276044398661210e+00  +7.9736332591083772e-02  -2.6787809553879210e-01  
3
ion step # 27
     8  +2.4979006535903722e-01  -2.6888893850056117e-01  +2.5033606322853003e-01  
     1  -4.9039308526159252e-02  +4.7813066550170158e-01  +8.5442993887042640e-01  
     1  +1.0072207269091731e+00  +4.1359568084367457e-02  -2.8137150316390114e-01  
3
ion step # 28
     8  +2.6181465878665194e-01  -2.7419392487262928e-01  +2.5973496789394679e-01  
     1  -6.7336583103872527e-02  +4.6206286774629884e-01  +8.4318200158959145e-01  
     1  +9.7971963968828091e-01  +3.3367451811036697e-03  -2.8833705945537774e-01  
3
ion step # 29
     8  +2.7305116024287485e-01  -2.7926703569152506e-01  +2.6995730827609854e-01  
     1  -7.6362325198322326e-02  +4.3600919424912077e-01  +8.1961254969667940e-01  
     1  +9.5561401633240883e-01  -2.8523956047770263e-02  -2.9597689581252140e-01  
3
ion step # 30
     8  +2.8311866571469418e-01  -2.8491641598333084e-01  +2.8113347099682401e-01  
     1  -7.8890660277766186e-02  +4.0843556870755410e-01  +7.8943444263847073e-01  
     1  +9.4381753855180128e-01  -4.9916923113609291e-02  -3.1193980740501936e-01  
3
ion step # 31
     8  +2.9238679476567520e-01  -2.9199704731409054e-01  +2.9280241163357146e-01  
     1  -8.1103248286212862e-02  +3.9231598786392052e-01  +7.6148343089333559e-01  
     1  +9.4460998733103374e-01  -6.0306451422363780e-02  -3.3770637253198160e-01  
3
ion step # 32
     8  +3.0174496344876550e-01  -3.0102989413605802e-01  +3.0414550239626370e-01  
     1  -8.9093624858256545e-02  +3.9859954211718679e-01  +7.4231772119030848e-01  
     1  +9.4988915648603833e-01  -6.2413469233255199e-02  -3.6689861308160648e-01  
3
ion step # 33
     8  +3.1175658642572068e-01  -3.1170627982031796e-01  +3.1473659945057586e-01  
     1  -1.0274540995189231e-01  +4.2598988498045426e-01  +7.2991362477671584e-01  
     1  +9.5043205801257424e-01  -5.9725983403338713e-02  -3.9090612980148581e-01  
3
ion step # 34
     8  +3.2235674296558919e-01  -3.2302181484606135e-01  +3.2469883603359234e-01  
     1  -1.1570505922860311e-01  +4.6154139810092287e-01  +7.1634977121069865e-01  
     1  +9.4077285812661260e-01  -5.5047133007921675e-02  -4.0391506924167270e-01  
3
ion step # 35
     8  +3.3318307010918768e-01  -3.3395346383194630e-01  +3.3433633528504630e-01  
     1  -1.2128370954253055e-01  +4.9098447629206460e-01  +6.9525967677841083e-01  
     1  +9.1996027128039359e-01  -5.0243138129961652e-02  -4.0441315633753377e-01  
3
ion step # 36
     8  +3.4383504832675610e-01  -3.4384895155961198e-01  +3.4395295116678398e-01  
     1  -1.1599947708493100e-01  +5.0491332618456153e-01  +6.6467613015799154e-01  
     1  +8.9094113230885985e-01  -4.6228822523738854e-02  -3.9522481588450120e-01  
3
ion step # 37
     8  +3.5396203565224643e-01  -3.5249614379998589e-01  +3.5386126574257248e-01  
     1  -1.0007825560032771e-01  +4.9987689014852843e-01  +6.2648150052689333e-01  
     1  +8.5964305997538937e-01  -4.2972911170187617e-02  -3.8309316692754364e-01  
3
ion step # 38
     8  +3.6337344905134517e-01  -3.6009641943983456e-01  +3.6432474846539825e-01  
     1  -7.7372344213634286e-02  +4.7858419943728736e-01  +5.8542663349503732e-01  
     1  +8.3311827031376906e-01  -4.0040439421115931e-02  -3.7680240458294267e-01  
3
ion step # 39
     8  +3.7222242819471929e-01  -3.6719955047501029e-01  +3.7533421875130618e-01  
     1  -5.5297477835936276e-02  +4.5038456824492334e-01  +5.4807079730431607e-01  
     1  +8.1635606079121292e-01  -3.8145380094446985e-02  -3.8271508330205001e-01  
3
ion step # 40
     8  +3.8106884692950660e-01  -3.7449932571424976e-01  +3.8645852310272721e-01  
     1  -4.3325515214836824e-02  +4.2933806026084709e-01  +5.2077262945856984e-01  
     1  +8.0986720451374650e-01  -4.0420552134541890e-02  -4.0038533888913197e-01  
3
ion step # 41
     8  +3.9051496849060213e-01  -3.8236407287038987e-01  +3.9706438999863297e-01  
     1  -4.7996299411379284e-02  +4.2561783169754142e-01  +5.0680047464266464e-01  
     1  +8.1050878341052957e-01  -5.1247742413674593e-02  -4.2313987893212585e-01  
3
ion step # 42
     8  +4.0070419806644431e-01  -3.9038736743632035e-01  +4.0667200059651404e-01  
     1  -6.7569898061897060e-02  +4.3597300156144808e-01  +5.0520805408277336e-01  
     1  +8.1409058129654643e-01  -7.3780228270318549e-02  -4.4258181898662391e-01  
3
ion step # 1
     8  +9.8526014879586430e-03  -1.0251997162003201e-02  +7.7527775702439907e-03  
     1  +9.0216182984982161e-03  +2.0932618294076302e-02  +1.0088052108576246e+00  
     1  +9.7990880222011600e-01  +3.2636681098523659e-03  -5.6825846522931805e-04  
3
ion step # 2
     8  +2.0441330074498353e-02  -2.0460034382505349e-02  +1.7026386876142420e-02  
     1  +8.4237720814266098e-03  +4.1288853105696591e-02  +1.0034880355647362e+00  
     1  +9.5786140673781861e-01  +6.1869221244252202e-03  -1.1050976175649240e-02  
3
ion step # 3
     8  +3.0790465837455823e-02  -3.0617079489679757e-02  +2.7560126495379537e-02  
     1  -1.1674269378712447e-03  +6.0750159239318965e-02  +9.8824318198873418e-01  
     1  +9.4870647975347522e-01  +8.8680869185891707e-03  -3.1497513416569894e-02  
3
ion step # 4
     8  +4.0241418041411896e-02  -4.0768698149995064e-02  +3.8779443859676292e-02  
     1  -1.8290967294223089e-02  +7.9702540659366133e-02  +9.7150366641872921e-01  
     1  +9.6136580795454729e-01  +1.1714935724987940e-02  -6.1267050873752817e-02  
3
ion step # 5
     8  +4.9002468071173699e-02  -5.0984987950997894e-02  +4.9876287855629135e-02  
     1  -4.0763421996248377e-02  +9.9418581304202100e-02  +9.6325946051545008e-01  
     1  +9.9019028067900405e-01  +1.4826843500685919e-02  -9.7652605852852792e-02  
3
ion step # 6
     8  +5.7848249920814721e-02  -6.1316523944119322e-02  +6.0154646661219169e-02  
     1  -6.5826817668950488e-02  +1.2135569986576718e-01  +9.6912788976903408e-01  
     1  +1.0200665400879503e+00  +1.7802938323619854e-02  -1.3536086221811194e-01  
3
ion step # 7
     8  +6.7396822310459001e-02  -7.1743515904184277e-02  +6.9456377916234199e-02  
     1  -8.9976149607249145e-02  +1.4573982199375177e-01  +9.8558387237043066e-01  
     1  +1.0376944721609787e+00  +2.0252724523397117e-02  -1.6834694004767931e-01  
3
ion step # 8
     8  +7.7797664865771152e-02  -8.2178167056980223e-02  +7.8116232332092181e-02  
     1  -1.0914137687165464e-01  +1.7112801005586609e-01  +1.0027177105034151e+00  
     1  +1.0366914771462630e+00  +2.2206563088653649e-02  -1.9193840082004240e-01  
3
ion step # 9
     8  +8.8774963885412839e-02  -9.2546464732284242e-02  +8.6610476290372690e-02  
     1  -1.1970106904561315e-01  +1.9543536847236942e-01  +1.0109022560242407e+00  
     1  +1.0179271566310528e+00  +2.4271572883900690e-02  -2.0395346089563907e-01  
3
ion step # 10
     8  +9.9711019732897796e-02  -1.0285078561688413e-01  +9.5340121887789717e-02  
     1  -1.1949566581717172e-01  +2.1713842173876760e-01  +1.0048135293992657e+00  
     1  +9.8920025368808395e-01  +2.7810468119772055e-02  -2.0531615448293006e-01  
3
ion step # 11
     8  +1.0972851470321321e-01  -1.1324000569847781e-01  +1.0456381756667084e-01  
     1  -1.0837667254877527e-01  +2.3608658934371565e-01  +9.8462584828867250e-01  
     1  +9.6432643863015199e-01  +3.5131672894873872e-02  -2.0025917049884093e-01  
3
ion step # 12
     8  +1.1804559111563981e-01  -1.2401409343803395e-01  +1.1427690713972173e-01  
     1  -8.8405220292624861e-02  +2.5420531174927968e-01  +9.5631212373259877e-01  
     1  +9.5776121573950457e-01  +4.9006155935586763e-02  -1.9464906760696501e-01  
3
ion step # 13
     8  +1.2464195673031990e-01  -1.3551574700584110e-01  +1.2399452186122957e-01  
     1  -6.3443845257801543e-02  +2.7586098796526604e-01  +9.3067091687140602e-01  
     1  +9.7364589020973324e-01  +7.0592246930064148e-02  -1.9159878299606015e-01  
3
ion step # 14
     8  +1.3039619590995649e-01  -1.4790265196269334e-01  +1.3293027028440446e-01  
     1  -3.7467096556265692e-02  +3.0617922187200436e-01  +9.1816223068927483e-01  
     1  +1.0018585812781866e+00  +9.7554212826716474e-02  -1.8922332253133120e-01  
3
ion step # 15
     8  +1.3635492104433203e-01  -1.6094123797681828e-01  +1.4073711719604903e-01  
     1  -1.2370802507004447e-02  +3.4634484225556328e-01  +9.2048748939587965e-01  
     1  +1.0276284443077024e+00  +1.2523791109040941e-01  -1.8385428862102526e-01  
3
ion step # 16
     8  +1.4316853671230764e-01  -1.7399918708047524e-01  +1.4781640026140411e-01  
     1  +1.1945682322712269e-02  +3.9093562057547537e-01  +9.2915425058661949e-01  
     1  +1.0405175313811934e+00  +1.4905376482891047e-01  -1.7339482543507792e-01  
3
ion step # 17
     8  +1.5107447316723463e-01  -1.8634120403782814e-01  +1.5486941656681094e-01  
     1  +3.5607708771767881e-02  +4.3136409612327037e-01  +9.3329018549842746e-01  
     1  +1.0366035311484578e+00  +1.6577384341364235e-01  -1.5812988774641029e-01  
3
ion step # 1
     8  +9.0832421836911509e-03  +2.1150764163382308e-03  +4.8736679522938938e-03  
     1  -3.2879997142157218e-02  -7.3599499742444839e-04  +9.5939648808629197e-01  
     1  +9.9011298322219676e-01  -8.3946637521187285e-03  +1.9570160492999832e-03  
3
ion step # 2
     8  +1.9194262509890613e-02  +4.2212711070099794e-03  +1.0057867987746796e-02  
     1  -7.4858444517490352e-02  -1.3863140194903449e-03  +9.2265184812642775e-01  
     1  +9.7311808589311399e-01  -1.6683751933417434e-02  -4.7683062174432014e-03  
3
ion step # 3
     8  +2.9688425596258776e-02  +6.3339940190924680e-03  +1.4226368661392291e-02  
     1  -1.2624738039126313e-01  -2.0203198548433376e-03  +9.0896829087585207e-01  
     1  +9.5954212273001815e-01  -2.4992948437734728e-02  -1.8307129504741698e-02  
3
ion step # 4
     8  +3.9812951634303623e-02  +8.4915718219075263e-03  +1.6929240309880467e-02  
     1  -1.8583016833720675e-01  -2.7857728305751626e-03  +9.2252420821813441e-01  
     1  +9.6003587145821145e-01  -3.3728350174799283e-02  -3.5701881913174111e-02  
3
ion step # 5
     8  +4.8931704984427171e-02  +1.0726796350244068e-02  +1.8926809802376248e-02  
     1  -2.4723063838667028e-01  -3.7338957055845197e-03  +9.4746319197612561e-01  
     1  +9.7822668846770444e-01  -4.3303586139481577e-02  -5.3170954388359289e-02  
3
ion step # 6
     8  +5.6883668231673935e-02  +1.3038951800719919e-02  +2.1168048626024033e-02  
     1  -3.0112991752673474e-01  -4.8555233256306080e-03  +9.6457065140540865e-01  
     1  +1.0072868457822235e+00  -5.3690673618073094e-02  -6.6569650236164124e-02  
3
ion step # 7
     8  +6.3942461508514806e-02  +1.5401830657109861e-02  +2.4123165302418436e-02  
     1  -3.3988552877767053e-01  -6.1917374257531464e-03  +9.6261172646405480e-01  
     1  +1.0352275427614968e+00  -6.4375004795431331e-02  -7.2125468875569171e-02  
3
ion step # 8
     8  +7.0488215360977408e-02  +1.7785407772279844e-02  +2.7790417605533864e-02  
     1  -3.5949766278426337e-01  -7.8773927801176515e-03  +9.3898266502278660e-01  
     1  +1.0520324879677365e+00  -7.4728702048124027e-02  -6.7226072215976138e-02  
3
ion step # 9
     8  +7.6840856949377326e-02  +2.0181809740921319e-02  +3.1792475961012437e-02  
     1  -3.6023519053750391e-01  -1.0179204466304112e-02  +8.9854770616603996e-01  
     1  +1.0529278808972218e+00  -8.4363067998079924e-02  -5.0784648639973284e-02  
3
ion step # 10
     8  +8.3271052803777196e-02  +2.2628361023369101e-02  +3.5346509894022694e-02  
     1  -3.4762549149129379e-01  -1.3614504980043551e-02  +8.5410005539876355e-01  
     1  +1.0391968389571227e+00  -9.3373611228195957e-02  -2.3222054919732928e-02  
3
ion step # 11
     8  +8.9988591236760118e-02  +2.5234155534988385e-02  +3.7291547082543917e-02  
     1  -3.3262358102186346e-01  -1.9110088860719351e-02  +8.2563784864139356e-01  
     1  +1.0185386064934971e+00  -1.0258503247093372e-01  +1.3843662233605532e-02  
3
ion step # 12
     8  +9.6858169234186692e-02  +2.8169395570691442e-02  +3.6697074254671946e-02  
     1  -3.2591587982324477e-01  -2.7713299061066236e-02  +8.2988937934349905e-01  
     1  +1.0038756321283768e+00  -1.1366351929947750e-01  +5.8431763845970444e-02  
3
ion step # 13
     8  +1.0318122901837565e-01  +3.1543152509987904e-02  +3.3872373799255825e-02  
     1  -3.2781271480540619e-01  -3.9378911887483832e-02  +8.6320844889227555e-01  
     1  +1.0066776051190398e+00  -1.2839506628348990e-01  +1.0929022281183591e-01  
3
ion step # 14
     8  +1.0845867287711776e-01  +3.5255574079721297e-02  +3.0149619269702801e-02  
     1  -3.3003128979787139e-01  -5.2481397339331742e-02  +9.0551367587366693e-01  
     1  +1.0266087676304945e+00  -1.4684540882926056e-01  +1.6539496088680425e-01  
3
ion step # 15
     8  +1.1301517124238017e-01  +3.9017575029653216e-02  +2.6892676643933362e-02  
     1  -3.2542386700378556e-01  -6.4897813918754182e-02  +9.3807006472656673e-01  
     1  +1.0513510720178423e+00  -1.6660257349733804e-01  +2.2388271081356614e-01  
3
ion step # 16
     8  +1.1755612516435081e-01  +4.2505624033832144e-02  +2.5066096609987591e-02  
     1  -3.1148957157815604e-01  -7.4898174804267442e-02  +9.5042363227940130e-01  
     1  +1.0671689915227991e+00  -1.8433821779788953e-01  +2.7993673541947273e-01  
3
ion step # 17
     8  +1.2268198639620505e-01  +4.5483035393060318e-02  +2.5166221932845883e-02  
     1  -2.8975930238534803e-01  -8.1419390064358388e-02  +9.3979360128356493e-01  
     1  +1.0660156796280047e+00  -1.9744396873728232e-01  +3.2847829965681896e-01  
3
ion step # 18
     8  +1.2877690461113453e-01  +4.7850965421672935e-02  +2.7183953542573705e-02  
     1  -2.6521173103125140e-01  -8.4227031653803228e-02  +9.1031078604455529e-01  
     1  +1.0467137014510701e+00  -2.0466488844246239e-01  +3.6551647217523708e-01  
3
ion step # 19
     8  +1.3604138614427028e-01  +4.9681481965732660e-02  +3.0522791340935627e-02  
     1  -2.4637564079738467e-01  -8.4192955446182077e-02  +8.7345507098775144e-01  
     1  +1.0145342842224803e+00  -2.0633525329476451e-01  +3.8900878048657156e-01  
3
ion step # 20
     8  +1.4445812574005884e-01  +5.1233413383251339e-02  +3.4048766216477719e-02  
     1  -2.4441664493548457e-01  -8.3285078049385022e-02  +8.4633112730320759e-01  
     1  +9.8083249209992518e-01  -2.0464299379842110e-01  +3.9979793952325715e-01  
3
ion step # 21
     8  +1.5358963763771100e-01  +5.2855307939139763e-02  +3.6708105272094817e-02  
     1  -2.6775215105643230e-01  -8.3158221468434906e-02  +8.4129557061547866e-01  
     1  +9.6091157801001970e-01  -2.0349523709793840e-01  +4.0220247901139455e-01  
3
ion step # 22
     8  +1.6253531633415999e-01  +5.4743674663291386e-02  +3.8454567064955807e-02  
     1  -3.1399016909284316e-01  -8.3114934706988150e-02  +8.5316018083006939e-01  
     1  +9.6669011781548952e-01  -2.0672838682432987e-01  +4.0211746977268609e-01  
3
ion step # 23
     8  +1.7058841030490685e-01  +5.6796412332164349e-02  +4.0178392136137969e-02  
     1  -3.7068925135020758e-01  -8.0955950946671892e-02  +8.6496058076061577e-01  
     1  +9.9703131726448257e-01  -2.1494133159211232e-01  +4.0236699710225426e-01  
3
ion step # 24
     8  +1.7774136040378777e-01  +5.8721900263261212e-02  +4.2869325778616553e-02  
     1  -4.2390308613673305e-01  -7.5215506004196436e-02  +8.6254999200566329e-01  
     1  +1.0382063900932850e+00  -2.2500155904070837e-01  +4.0137495489219549e-01  
3
ion step # 25
     8  +1.8436907790596635e-01  +6.0259962672514371e-02  +4.7080497895594257e-02  
     1  -4.6355317638336185e-01  -6.5764416944679924e-02  +8.3962159134541159e-01  
     1  +1.0742471865315411e+00  -2.3294787831994651e-01  +3.9663597090711072e-01  
3
ion step # 26
     8  +1.9085335300679576e-01  +6.1303965456361936e-02  +5.2831386640470511e-02  
     1  -4.8468855803400568e-01  -5.3497591363089902e-02  +7.9667859200966917e-01  
     1  +1.0941639875037015e+00  -2.3623013855306549e-01  +3.8728518396398021e-01  
3
ion step # 27
     8  +1.9751922142248901e-01  +6.1920967729455101e-02  +5.9651844756094495e-02  
     1  -4.8811618601793666e-01  -4.0096945428949503e-02  +7.3999151189507451e-01  
     1  +1.0935961674257852e+00  -2.3425679329846180e-01  +3.7445587704045358e-01  
3
ion step # 28
     8  +2.0471908079877796e-01  +6.2353794475797121e-02  +6.6600560020637134e-02  
     1  -4.8191378250176442e-01  -2.7962108084745450e-02  +6.8154854088967354e-01  
     1  +1.0749995940039931e+00  -2.2848706889070822e-01  +3.6107203677912586e-01  
3
ion step # 29
     8  +2.1278261298649853e-01  +6.3017944691479616e-02  +7.2387073711798436e-02  
     1  -4.8129868270407572e-01  -1.9869335397307307e-02  +6.3710300140563525e-01  
     1  +1.0483214442908433e+00  -2.2272881320343932e-01  +3.5187370378666066e-01  
3
ion step # 30
     8  +2.2150540875150854e-01  +6.4414465243581326e-02  +7.5945640705821979e-02  
     1  -4.9936854771351080e-01  -1.7744135945905432e-02  +6.1737934767405922e-01  
     1  +1.0298420382816076e+00  -2.2298766853200028e-01  +3.5316510327756256e-01  
3
ion step # 31
     8  +2.2982522229447824e-01  +6.6871046637336257e-02  +7.7168918804310052e-02  
     1  -5.3268005397910967e-01  -2.1414307433635048e-02  +6.1877150972697625e-01  
     1  +1.0329105618804637e+00  -2.3464821412910064e-01  +3.7031675452966423e-01  
3
ion step # 32
     8  +2.3692986212760347e-01  +7.0266397263306579e-02  +7.6835769947815616e-02  
     1  -5.6505280057937768e-01  -2.9290774731248963e-02  +6.2915172129633756e-01  
     1  +1.0542065019748503e+00  -2.5738577633361875e-01  +4.0314150083304306e-01  
3
ion step # 33
     8  +2.4298155316513245e-01  +7.4110309781590139e-02  +7.5971652673816212e-02  
     1  -5.8209001368848323e-01  -3.9692048409864816e-02  +6.3835385608939021e-01  
     1  +1.0767538814790765e+00  -2.8512311939455698e-01  +4.4553235331082880e-01  
3
ion step # 34
     8  +2.4854415319081760e-01  +7.7889131367487277e-02  +7.5391345492497736e-02  
     1  -5.7689045399667505e-01  -5.1290696937579067e-02  +6.4103524707763837e-01  
     1  +1.0847333604305900e+00  -3.1096836872141337e-01  +4.8988944512815097e-01  
3
ion step # 35
     8  +2.5414517212751353e-01  +8.1246720473687917e-02  +7.5555368121096617e-02  
     1  -5.4980161394750282e-01  -6.3183255121826015e-02  +6.3597045185676271e-01  
     1  +1.0701370325010848e+00  -3.3015473876608092e-01  +5.3011968705622203e-01  
3
ion step # 36
     8  +2.6025854283779604e-01  +8.4036088343559495e-02  +7.6543897870475580e-02  
     1  -5.0795417702876955e-01  -7.5079816510046596e-02  +6.2564993799623458e-01  
     1  +1.0326178678113618e+00  -3.4056116698516181e-01  +5.6247120250064564e-01  
3
ion step # 37
     8  +2.6733883337447728e-01  +8.6358092058300112e-02  +7.8020556224994500e-02  
     1  -4.6508053681424977e-01  -8.7618374542704630e-02  +6.1624895428305326e-01  
     1  +9.7873410198407984e-01  -3.4296757112274495e-01  +5.8613012033994905e-01  
3
ion step # 38
     8  +2.7561588636249579e-01  +8.8565654034469740e-02  +7.9299044693901657e-02  
     1  -4.3796934040914182e-01  -1.0208139049815668e-01  +6.1540220759104935e-01  
     1  +9.2167013734152681e-01  -3.4170925089367082e-01  +6.0437698930876393e-01  
3
ion step # 39
     8  +2.8465063920951184e-01  +9.1128031157292316e-02  +7.9755196789953894e-02  
     1  -4.3645143864930147e-01  -1.1843115515531683e-01  +6.2557129060535355e-01  
     1  +8.7833983098246238e-01  -3.4424314752806334e-01  +6.2470261096501700e-01  
3
ion step # 40
     8  +2.9344045904851013e-01  +9.4225978814017480e-02  +7.9412414751352009e-02  
     1  -4.5614485204045940e-01  -1.3358533246773688e-01  +6.3983172674955113e-01  
     1  +8.6024975179470076e-01  -3.5645735679188395e-01  +6.5365877909114989e-01  
3
ion step # 41
     8  +3.0131707182216444e-01  +9.7468189106835829e-02  +7.9090684199868547e-02  
     1  -4.8439302273257451e-01  -1.4319313730155667e-01  +6.4750442441508638e-01  
     1  +8.6531079184679727e-01  -3.7642180980376644e-01  +6.8890503347148369e-01  
3
ion step # 42
     8  +3.0822009259784783e-01  +1.0016567369560563e-01  +7.9880682363804856e-02  
     1  -5.0931480083378255e-01  -1.4420603795306486e-01  +6.4090856236128235e-01  
     1  +8.8253737956610856e-01  -3.9618074323479269e-01  +7.2080656999480952e-01  
3
ion step # 43
     8  +3.1435416235989366e-01  +1.0178236508445083e-01  +8.2540829122101339e-02  
     1  -5.2352406643303362e-01  -1.3559027320507347e-01  +6.1706301594197110e-01  
     1  +9.0124073279242589e-01  -4.0820948283069397e-01  +7.4031967740458593e-01  
3
ion step # 44
     8  +3.2000165627356919e-01  +1.0210743441558982e-01  +8.7299592551211599e-02  
     1  -5.2477958966171678e-01  -1.1810925265105025e-01  +5.7707973863524509e-01  
     1  +9.1465839610167876e-01  -4.0838384811110556e-01  +7.4274901692441175e-01  
3
ion step # 45
     8  +3.2554518460669790e-01  +1.0126064474723399e-01  +9.3871717237080460e-02  
     1  -5.1648813404116312e-01  -9.4141485754196355e-02  +5.2560599235947825e-01  
     1  +9.2010695484513738e-01  -3.9620492362764426e-01  +7.2804234029757731e-01  
3
ion step # 46
     8  +3.3149732900390222e-01  +9.9680147107560749e-02  +1.0149489054838655e-01  
     1  -5.0822831621478093e-01  -6.7452160050341187e-02  +4.7016584130169903e-01  
     1  +9.1901648886181841e-01  -3.7486599245737373e-01  +7.0085022557229404e-01  
3
ion step # 47
     8  +3.3828332068714229e-01  +9.8083518952555168e-02  +1.0905098170426346e-01  
     1  -5.1292907402279764e-01  -4.2125089358311371e-02  +4.1869614915651016e-01  
     1  +9.1757854831807650e-01  -3.5168941440367735e-01  +6.7099215642015886e-01  
3
ion step # 48
     8  +3.4567898426998367e-01  +9.7274705132094727e-02  +1.1544125744207578e-01  
     1  -5.3693585883805628e-01  -2.0587555164095959e-02  +3.7515363132384594e-01  
     1  +9.2572031748621830e-01  -3.3704084263304146e-01  +6.5191933612216713e-01  
3
ion step # 49
     8  +3.5278560066185499e-01  +9.7734843450072120e-02  +1.2013263614304150e-01  
     1  -5.7215881691659587e-01  -3.1080689280471173e-03  +3.3848511519363672e-01  
     1  +9.4965514852442545e-01  -3.3832760679008139e-01  +6.5308062677772205e-01  
3
ion step # 50
     8  +3.5904349453656692e-01  +9.9304089842462556e-02  +1.2342937998656443e-01  
     1  -6.0311419433838198e-01  +1.0560202125921609e-02  +3.0659347807921566e-01  
     1  +9.8283064978285983e-01  -3.5323367034969505e-01  +6.7168002487527811e-01  
3
ion step # 51
     8  +3.6461368717107934e-01  +1.0144516814061470e-01  +1.2604525154405422e-01  
     1  -6.1764077310794452e-01  +2.0207013260540529e-02  +2.7884297882941306e-01  
     1  +1.0105566623192686e+00  -3.7299633184785808e-01  +6.9696584194163980e-01  
3
ion step # 52
     8  +3.6994695380830062e-01  +1.0369885466053287e-01  +1.2854988696352196e-01  
     1  -6.1073767300724269e-01  +2.5307452675764484e-02  +2.5581748084746764e-01  
     1  +1.0207013650830417e+00  -3.8974559686110444e-01  +7.1926821873415936e-01  
3
ion step # 53
     8  +3.7554272754619400e-01  +1.0583470570793428e-01  +1.3121214734544867e-01  
     1  -5.8464368463641325e-01  +2.5274241122087631e-02  +2.3856669078532353e-01  
     1  +1.0075825807664514e+00  -3.9920092701516502e-01  +7.3323248010331310e-01  
3