32
MD step # 1
    14      0.68729167      0.63867682      0.65786971
    14      -1.9867368      -2.0149059      0.68311093
    14      -2.0235046      0.66988957       3.3771574
    14      0.67343439      -2.0489618       3.3546994
    14       2.0691182       2.0231097       2.0446615
    14     -0.68818735       -0.724875       2.0405707
    14     -0.67477646        1.967799       4.7400356
    14       2.0484415     -0.70584098       4.7116448
    14      0.67866473      0.64849259       6.1000528
    14      -1.9869299      -2.0551399         6.08979
    14      -1.9967412      0.62904809       8.8374916
    14      0.68241558      -2.0164767       8.7992502
    14       2.0035258       1.9819225       7.4523213
    14     -0.65970682     -0.67178467       7.4231122
    14      -0.7112835       2.0449277       10.086425
    14       2.0305714     -0.67475988       10.110692
    14      0.69609134      0.67716452      -10.140565
    14       -2.018466      -2.0341084      -10.135436
    14      -2.0008276      0.63547102       -7.407022
    14      0.72864728      -2.0252622      -7.4364422
    14        2.048549       2.0495252      -8.7947959
    14     -0.66763861     -0.62870895      -8.7819427
    14     -0.65772331       2.0127201      -6.0765655
    14       2.0353607     -0.71775804      -6.0614779
    14      0.63991487      0.67910231      -4.7481123
    14      -2.0351206      -2.0141473      -4.7145107
    14       -1.991699       0.6686961      -2.0220386
    14      0.67354774      -2.0545017      -1.9890611
    14       2.0395131       2.0776644       -3.379145
    14     -0.70133177     -0.73713124      -3.3770628
    14      -0.6729939       2.0106096     -0.70569379
    14       2.0399859     -0.70966967      -0.7113535
32
MD step # 2
    14       0.6872957      0.63868315      0.65788752
    14       3.4108437       3.3826692      0.68308094
    14        3.374111      0.66986141       3.3771647
    14      0.67343697       3.3486281       3.3547305
    14       2.0690859       2.0231108       2.0446247
    14       4.7094456       4.6727919       2.0405666
    14       4.7228557       1.9678236       4.7400251
    14       2.0484243       4.6917646       4.7116592
    14      0.67868118      0.64848428       6.1000252
    14       3.4106501       3.3424588       6.0897909
    14       3.4008419      0.62906985       8.8374288
    14      0.68240412       3.3811221       8.7992175
    14       2.0035651        1.981938       7.4523362
    14          4.7379       4.7258035       7.4231332
    14       4.6863721        2.044913       10.086457
    14        2.030567       4.7228244       10.110727
    14      0.69607521      0.67721086       11.449855
    14       3.3791506       3.3635435       11.455005
    14        3.396741      0.63550983       14.183407
    14      0.72859022       3.3723488       14.153985
    14        2.048563       2.0494639        12.79565
    14       4.7299994       4.7688353       12.808481
    14       4.7398568       2.0127597       15.513846
    14       2.0353455       4.6799074       15.528949
    14      0.63996471      0.67906889       16.842353
    14       3.3625149        3.383425       16.875894
    14        3.405867        0.668693        19.56836
    14       0.6735447       3.3431241       19.601331
    14       2.0394933        2.077592       18.211294
    14       4.6963179       4.6605214       18.213385
    14       4.7246275       2.0105976       20.884787
    14       2.0399944       4.6879597       20.879105
32
MD step # 3
    14      0.68730781      0.63870213      0.65794093
    14       3.4107624       3.3825718      0.68299106
    14       3.3741351      0.66977704       3.3771867
    14      0.67344466       3.3485754       3.3548236
    14       2.0689889       2.0231139       2.0445144
    14       4.7095219       4.6729699       2.0405545
    14       4.7229295       1.9678972       4.7399937
    14       2.0483727       4.6917587       4.7117022
    14      0.67873052      0.64845941       6.0999422
    14       3.4105675       3.3424325       6.0897935
    14       3.4007687       0.6291351       8.8372407
    14       0.6823698       3.3810956       8.7991194
    14        2.003683       1.9819842       7.4523809
    14       4.7378979       4.7257454       7.4231961
    14       4.6865161        2.044869       10.086554
    14        2.030554       4.7227547       10.110832
    14      0.69602687      0.67734971       11.449823
    14       3.3791776       3.3636764       11.455039
    14       3.3966245      0.63562612       14.183405
    14      0.72841924       3.3723594       14.153976
    14       2.0486048       2.0492801       12.795699
    14       4.7300905       4.7686458        12.80846
    14       4.7397745       2.0128782       15.513792
    14          2.0353       4.6800807        15.52894
    14      0.64011405      0.67896879       16.842459
    14       3.3625986       3.3833193       16.875819
    14       3.4057424       0.6686837       19.568266
    14      0.67353562        3.343179       19.601216
    14       2.0394341       2.0773749       18.211319
    14       4.6964442       4.6606567       18.213437
    14        4.724669       2.0105616       20.884939
    14         2.04002       4.6880251       20.879188
32
MD step # 4
    14      0.68732806      0.63873384      0.65802987
    14       3.4106274       3.3824101      0.68284166
    14       3.3741752      0.66963683       3.3772233
    14       0.6734574       3.3484878       3.3549785
    14       2.0688276       2.0231189        2.044331
    14       4.7096488       4.6732657       2.0405341
    14       4.7230522       1.9680198       4.7399415
    14        2.048287       4.6917489       4.7117738
    14       0.6788127      0.64841808       6.0998043
    14         3.41043       3.3423887       6.0897979
    14       3.4006469      0.62924373       8.8369277
    14       0.6823128       3.3810515       8.7989562
    14       2.0038792       1.9820611        7.452455
    14       4.7378943       4.7256487       7.4233005
    14       4.6867555       2.0447958       10.086716
    14       2.0305323       4.7226388       10.111007
    14      0.69594639      0.67758058       11.449769
    14       3.3792226       3.3638973       11.455095
    14       3.3964307      0.63581949       14.183401
    14      0.72813497       3.3723768       14.153962
    14       2.0486744       2.0489746       12.795779
    14       4.7302421       4.7683307       12.808426
    14       4.7396379       2.0130751       15.513701
    14       2.0352243       4.6803689       15.528926
    14       0.6403623      0.67880258       16.842634
    14       3.3627377       3.3831436       16.875694
    14       3.4055351      0.66866831        19.56811
    14      0.67352061       3.3432702       19.601024
    14       2.0393354       2.0770137       18.211362
    14       4.6966542       4.6608818       18.213523
    14       4.7247381       2.0105015       20.885192
    14       2.0400624       4.6881339       20.879327
32
MD step # 1
    14      0.68729167      0.63867682      0.65786971
    14      -1.9867368      -2.0149059      0.68311093
    14      -2.0235046      0.66988957       3.3771574
    14      0.67343439      -2.0489618       3.3546994
    14       2.0691182       2.0231097       2.0446615
    14     -0.68818735       -0.724875       2.0405707
    14     -0.67477646        1.967799       4.7400356
    14       2.0484415     -0.70584098       4.7116448
    14      0.67866473      0.64849259       6.1000528
    14      -1.9869299      -2.0551399         6.08979
    14      -1.9967412      0.62904809       8.8374916
    14      0.68241558      -2.0164767       8.7992502
    14       2.0035258       1.9819225       7.4523213
    14     -0.65970682     -0.67178467       7.4231122
    14      -0.7112835       2.0449277       10.086425
    14       2.0305714     -0.67475988       10.110692
    14      0.69609134      0.67716452      -10.140565
    14       -2.018466      -2.0341084      -10.135436
    14      -2.0008276      0.63547102       -7.407022
    14      0.72864728      -2.0252622      -7.4364422
    14        2.048549       2.0495252      -8.7947959
    14     -0.66763861     -0.62870895      -8.7819427
    14     -0.65772331       2.0127201      -6.0765655
    14       2.0353607     -0.71775804      -6.0614779
    14      0.63991487      0.67910231      -4.7481123
    14      -2.0351206      -2.0141473      -4.7145107
    14       -1.991699       0.6686961      -2.0220386
    14      0.67354774      -2.0545017      -1.9890611
    14       2.0395131       2.0776644       -3.379145
    14     -0.70133177     -0.73713124      -3.3770628
    14      -0.6729939       2.0106096     -0.70569379
    14       2.0399859     -0.70966967      -0.7113535
32
MD step # 2
    14      0.68729534      0.63868347      0.65788713
    14       3.4108435       3.3826695      0.68308061
    14       3.3741109      0.66986158       3.3771646
    14      0.67343671       3.3486281       3.3547305
    14       2.0690857       2.0231103       2.0446248
    14       4.7094459       4.6727919       2.0405667
    14       4.7228562       1.9678233       4.7400252
    14       2.0484242       4.6917646       4.7116594
    14      0.67868086      0.64848451       6.1000247
    14       3.4106496        3.342459       6.0897906
    14       3.4008415      0.62907007        8.837428
    14       0.6824039       3.3811226       8.7992168
    14       2.0035654       1.9819379       7.4523367
    14       4.7379005       4.7258032       7.4231338
    14       4.6863725       2.0449128       10.086458
    14       2.0305675       4.7228238       10.110728
    14      0.69607473      0.67721084       11.449854
    14         3.37915       3.3635436       11.455005
    14       3.3967405       0.6355101       14.183407
    14      0.72859011       3.3723493       14.153985
    14       2.0485634       2.0494637       12.795651
    14            4.73        4.768835       12.808481
    14       4.7398574       2.0127595       15.513847
    14       2.0353458       4.6799069        15.52895
    14      0.63996443      0.67906926       16.842353
    14       3.3625144       3.3834252       16.875894
    14       3.4058669      0.66869343        19.56836
    14      0.67354445       3.3431241        19.60133
    14       2.0394934       2.0775914       18.211294
    14       4.6963182       4.6605217       18.213385
    14       4.7246281       2.0105967       20.884788
    14       2.0399945         4.68796       20.879105
32
MD step # 3
    14      0.68730635      0.63870341      0.65793935
    14       3.4107619        3.382573      0.68298976
    14       3.3741348      0.66977774       3.3771862
    14      0.67344365       3.3485756       3.3548237
    14       2.0689884        2.023112        2.044515
    14        4.709523       4.6729696       2.0405546
    14       4.7229313       1.9678962       4.7399941
    14       2.0483725       4.6917589       4.7117032
    14      0.67872922      0.64846031       6.0999405
    14       3.4105654        3.342433       6.0897922
    14       3.4007669      0.62913597       8.8372375
    14      0.68236893       3.3810978       8.7991165
    14        2.003684       1.9819841       7.4523827
    14       4.7378997       4.7257441       7.4231984
    14       4.6865175       2.0448682       10.086558
    14        2.030556       4.7227523       10.110836
    14      0.69602495      0.67734962       11.449821
    14       3.3791752        3.363677       11.455036
    14       3.3966223       0.6356272       14.183404
    14      0.72841882       3.3723613       14.153976
    14       2.0486064       2.0492794       12.795699
    14        4.730093       4.7686446       12.808461
    14       4.7397772       2.0128774       15.513794
    14       2.0353011       4.6800789       15.528942
    14      0.64011291      0.67897027       16.842456
    14       3.3625966       3.3833203       16.875817
    14       3.4057422      0.66868544       19.568265
    14      0.67353461       3.3431788       19.601214
    14       2.0394343       2.0773728        18.21132
    14       4.6964454       4.6606577       18.213438
    14       4.7246714       2.0105582       20.884941
    14       2.0400203       4.6880265       20.879191
32
MD step # 4
    14      0.68732478       0.6387367      0.65802634
    14       3.4106261       3.3824128      0.68283875
    14       3.3741745      0.66963839        3.377222
    14      0.67345515       3.3484882       3.3549786
    14       2.0688263       2.0231147       2.0443323
    14       4.7096514       4.6732652       2.0405344
    14       4.7230563       1.9680176       4.7399424
    14       2.0482865       4.6917491       4.7117762
    14      0.67880979       0.6484201       6.0998004
    14       3.4104254       3.3423899       6.0897949
    14       3.4006428      0.62924568       8.8369205
    14      0.68231086       3.3810564       8.7989498
    14       2.0038813       1.9820609       7.4524592
    14       4.7378983       4.7256458       7.4233058
    14       4.6867588       2.0447939       10.086725
    14       2.0305366       4.7226336       10.111015
    14       0.6959421      0.67758035       11.449765
    14       3.3792173       3.3638987        11.45509
    14        3.396426      0.63582188       14.183398
    14      0.72813404       3.3723811       14.153961
    14       2.0486778        2.048973       12.795781
    14       4.7302477        4.768328       12.808428
    14       4.7396438       2.0130732       15.513706
    14       2.0352268       4.6803648       15.528929
    14      0.64035974      0.67880588       16.842629
    14       3.3627333       3.3831458        16.87569
    14       3.4055347       0.6686722       19.568107
    14      0.67351835         3.34327        19.60102
    14        2.039336        2.077009       18.211364
    14       4.6966568       4.6608842       18.213526
    14       4.7247435       2.0104941       20.885196
    14        2.040063        4.688137       20.879334
32
MD step # 5
    14      0.68735074      0.63878345      0.65814801
    14       3.4104369       3.3821893      0.68262819
    14       3.3742297      0.66944416        3.377272
    14       0.6734711       3.3483666       3.3551949
    14       2.0685999       2.0231179       2.0440771
    14       4.7098306       4.6736774        2.040506
    14       4.7232307       1.9681871       4.7398702
    14       2.0481663       4.6917353       4.7118782
    14      0.67892254       0.6483641       6.0996049
    14         3.41023       3.3423298       6.0897988
    14       3.4004695      0.62939902       8.8364781
    14      0.68223006       3.3809984       8.7987171
    14       2.0041568       1.9821682       7.4525656
    14       4.7378962       4.7255086       7.4234552
    14       4.6870954       2.0446901       10.086957
    14       2.0305093       4.7224682       10.111264
    14      0.69582637      0.67790218       11.449688
    14       3.3792762       3.3642077       11.455164
    14       3.3961524      0.63609346        14.18339
    14      0.72773683       3.3724085       14.153939
    14       2.0487775       2.0485457       12.795894
    14       4.7304634       4.7678866       12.808382
    14       4.7394579        2.013346       15.513583
    14       2.0351231       4.6807636       15.528911
    14        0.640704      0.67857699       16.842871
    14       3.3629239       3.3829025       16.875512
    14       3.4052452      0.66865384       19.567887
    14      0.67349589       3.3433972        19.60075
    14       2.0391987       2.0765007       18.211424
    14        4.696952       4.6612006       18.213648
    14       4.7248441       2.0104042       20.885552
    14       2.0401225       4.6882912       20.879533
32
MD step # 6
    14      0.68738443      0.63884382      0.65830427
    14       3.4101948       3.3819035      0.68235894
    14       3.3743001      0.66919589       3.3773359
    14      0.67349133       3.3482114       3.3554719
    14       2.0683094       2.0231211       2.0437502
    14       4.7100605       4.6742049       2.0404691
    14       4.7234539       1.9684043       4.7397776
    14       2.0480122       4.6917171       4.7120093
    14      0.67906746      0.64829258       6.0993546
    14       3.4099795        3.342253        6.089804
    14       3.4002474      0.62959577       8.8359114
    14      0.68212704       3.3809236       8.7984191
    14       2.0045097       1.9823057       7.4527011
    14       4.7378932       4.7253326       7.4236461
    14       4.6875262       2.0445572       10.087254
    14       2.0304737       4.7222568       10.111584
    14      0.69567802       0.6783139       11.449588
    14       3.3793518       3.3646026        11.45526
    14       3.3958028      0.63644094       14.183378
    14      0.72722865        3.372443       14.153912
    14        2.048905       2.0479993       12.796041
    14       4.7307394       4.7673223       12.808323
    14       4.7392204       2.0136942       15.513425
    14       2.0349904        4.681274       15.528887
    14      0.64114433      0.67828492        16.84318
    14       3.3631676       3.3825913       16.875285
    14       3.4048744      0.66863054       19.567606
    14      0.67346756       3.3435603       19.600404
    14       2.0390227       2.0758489       18.211501
    14       4.6973299       4.6616064       18.213804
    14        4.724973       2.0102885       20.886008
    14       2.0401984       4.6884888       20.879788
32
MD step # 7
    14      0.68742611      0.63891806      0.65849506
    14       3.4099009       3.3815565      0.68203213
    14       3.3743852      0.66889471       3.3774134
    14      0.67351565       3.3480234       3.3558089
    14       2.0679555       2.0231235       2.0433524
    14       4.7103404       4.6748456       2.0404234
    14       4.7237254       1.9686689       4.7396651
    14       2.0478243       4.6916942       4.7121694
    14      0.67924453      0.64820593       6.0990503
    14       3.4096749       3.3421597       6.0898104
    14        3.399977      0.62983564       8.8352222
    14      0.68200247        3.380832       8.7980565
    14        2.004939       1.9824732        7.452865
    14       4.7378891       4.7251182       7.4238772
    14       4.6880497       2.0443953       10.087616
    14       2.0304293       4.7220005       10.111972
    14      0.69549734      0.67881394       11.449468
    14       3.3794442       3.3650816       11.455377
    14       3.3953791      0.63686304       14.183363
    14      0.72661143       3.3724843       14.153878
    14       2.0490597       2.0473359       12.796219
    14       4.7310745       4.7666375       12.808253
    14       4.7389325       2.0141159       15.513235
    14        2.034829        4.681894       15.528859
    14      0.64167904      0.67793137       16.843556
    14       3.3634633       3.3822135       16.875009
    14       3.4044234      0.66860253       19.567264
    14      0.67343381       3.3437589       19.599984
    14       2.0388086        2.075055       18.211594
    14       4.6977895       4.6621011       18.213994
    14       4.7251296       2.0101469       20.886562
    14         2.04029        4.688729       20.880099
32
MD step # 8
    14      0.68747614      0.63900649      0.65872031
    14       3.4095565       3.3811498      0.68164911
    14       3.3744846        0.668542       3.3775042
    14      0.67354379       3.3478039       3.3562049
    14       2.0675388       2.0231243       2.0428845
    14         4.71067       4.6755972       2.0403686
    14       4.7240441       1.9689803       4.7395329
    14        2.047603       4.6916662       4.7123584
    14      0.67945382      0.64810461       6.0986929
    14       3.4093167       3.3420503       6.0898183
    14       3.3996589      0.63011833       8.8344122
    14      0.68185721       3.3807232       8.7976305
    14       2.0054437       1.9826703       7.4530559
    14       4.7378835        4.724866       7.4241473
    14       4.6886641        2.044205       10.088042
    14       2.0303758       4.7217007       10.112428
    14       0.6952847       0.6794004       11.449327
    14       3.3795533       3.3656424       11.455517
    14       3.3948833      0.63735821       14.183343
    14      0.72588751       3.3725316       14.153838
    14       2.0492412       2.0465583       12.796431
    14       4.7314676       4.7658351       12.808172
    14       4.7385955       2.0146086       15.513011
    14       2.0346393       4.6826215       15.528825
    14      0.64230603      0.67751845       16.843997
    14       3.3638097       3.3817706       16.874685
    14       3.4038937       0.6685701       19.566862
    14       0.6733952       3.3439926       19.599489
    14       2.0385566       2.0741202       18.211703
    14       4.6983293       4.6626838       18.214215
    14       4.7253135       2.0099791       20.887213
    14       2.0403967       4.6890112       20.880464
32
MD step # 9
    14      0.68753496       0.6391095      0.65897997
    14       3.4091628        3.380685      0.68121153
    14       3.3745975      0.66813937       3.3776079
    14      0.67357543       3.3475541       3.3566589
    14       2.0670597       2.0231222       2.0423478
    14       4.7110485       4.6764568       2.0403042
    14       4.7244091       1.9693378       4.7393812
    14       2.0473486       4.6916327       4.7125764
    14       0.6796954      0.64798919       6.0982836
    14        3.408906       3.3419254       6.0898278
    14       3.3992939      0.63044348       8.8334839
    14      0.68169226        3.380597       8.7971422
    14       2.0060223       1.9828966       7.4532725
    14       4.7378762       4.7245763       7.4244549
    14       4.6893672       2.0439867        10.08853
    14       2.0303123       4.7213587       10.112951
    14      0.69504054      0.68007099       11.449165
    14       3.3796791       3.3662823       11.455679
    14        3.394318       0.6379246       14.183318
    14      0.72505964       3.3725841       14.153791
    14       2.0494487       2.0456696       12.796674
    14        4.731917       4.7649185        12.80808
    14       4.7382111       2.0151695       15.512756
    14       2.0344221       4.6834537       15.528787
    14       0.6430228      0.67704872       16.844504
    14       3.3642053       3.3812644       16.874315
    14       3.4032867       0.6685336       19.566404
    14      0.67335241       3.3442608       19.598923
    14       2.0382675       2.0730464       18.211825
    14       4.6989477       4.6633538       18.214467
    14       4.7255243       2.0097849       20.887958
    14       2.0405177       4.6893346       20.880883
32
MD step # 10
    14      0.68760314      0.63922761      0.65927405
    14       3.4087216       3.3801641      0.68072122
    14       3.3747231      0.66768876        3.377724
    14      0.67361022       3.3472757       3.3571697
    14        2.066519       2.0231159       2.0417435
    14       4.7114754       4.6774214       2.0402296
    14       4.7248192       1.9697408       4.7392107
    14       2.0470614       4.6915928       4.7128232
    14      0.67996941      0.64786033       6.0978235
    14       3.4084438       3.3417854        6.089839
    14       3.3988826      0.63081074       8.8324398
    14      0.68150884       3.3804529       8.7965929
    14       2.0066733       1.9831518        7.453513
    14       4.7378666       4.7242497       7.4247979
    14       4.6901567       2.0437409        10.08908
    14        2.030238       4.7209765       10.113537
    14      0.69476534      0.68082308       11.448985
    14       3.3798218       3.3669983       11.455864
    14       3.3936862      0.63856009       14.183286
    14      0.72413103        3.372641       14.153738
    14       2.0496813       2.0446737       12.796951
    14       4.7324212        4.763892       12.807979
    14       4.7377812       2.0157953       15.512471
    14       2.0341779       4.6843877       15.528743
    14      0.64382653      0.67652514       16.845073
    14       3.3646483        3.380697         16.8739
    14       3.4026042       0.6684934       19.565889
    14      0.67330631        3.344563       19.598286
    14       2.0379418       2.0718351       18.211961
    14        4.699643       4.6641103       18.214749
    14       4.7257612       2.0095639       20.888796
    14       2.0406521       4.6896983       20.881355
32
MD step # 11
    14      0.68768133      0.63936143      0.65960258
    14       3.4082346       3.3795892       0.6801803
    14       3.3748606      0.66719229        3.377852
    14      0.67364773       3.3469704       3.3577358
    14       2.0659174       2.0231037        2.041073
    14         4.71195       4.6784873       2.0401442
    14       4.7252732       1.9701886       4.7390216
    14       2.0467419       4.6915458       4.7130991
    14      0.68027607      0.64771879       6.0973141
    14       3.4079312       3.3416309       6.0898521
    14        3.398426       0.6312197       8.8312826
    14      0.68130833       3.3802904       8.7959841
    14       2.0073952       1.9834355       7.4537756
    14       4.7378542       4.7238868       7.4251745
    14       4.6910297       2.0434683       10.089689
    14       2.0301519       4.7205561       10.114186
    14      0.69445961      0.68165365       11.448786
    14       3.3799814       3.3677867       11.456073
    14       3.3929913      0.63926225       14.183246
    14      0.72310529       3.3727009       14.153677
    14       2.0499379       2.0435747        12.79726
    14        4.732978       4.7627602        12.80787
    14       4.7373081        2.016482       15.512156
    14       2.0339074         4.68542       15.528695
    14      0.64471396      0.67595109       16.845703
    14       3.3651367       3.3800709       16.873442
    14       3.4018482      0.66844993        19.56532
    14      0.67325785       3.3448985       19.597579
    14       2.0375802       2.0704885       18.212109
    14       4.7004129       4.6649524       18.215058
    14       4.7260235       2.0093157       20.889724
    14       2.0407987       4.6901012       20.881878
32
MD step # 12
    14      0.68777973      0.63952748      0.66000374
    14       3.4076484       3.3788973      0.67952945
    14       3.3750243      0.66659596       3.3780059
    14      0.67369162       3.3466059       3.3584207
    14       2.0651862       2.0230816       2.0402607
    14       4.7125263       4.6797722       2.0400368
    14       4.7258215       1.9707318       4.7387929
    14       2.0463536        4.691485        4.713436
    14      0.68065131      0.64754942       6.0966987
    14       3.4073107       3.3414451       6.0898691
    14       3.3978726      0.63171716       8.8298829
    14       0.6810698       3.3800898       8.7952477
    14       2.0082688         1.98378       7.4540873
    14       4.7378366       4.7234465       7.4256245
    14       4.6920828       2.0431383       10.090428
    14       2.0300423       4.7200522       10.114969
    14      0.69408879      0.68265408       11.448547
    14       3.3801766       3.3687332       11.456331
    14       3.3921585      0.64010858       14.183191
    14      0.72186942       3.3727691       14.153602
    14       2.0502468       2.0422522       12.797639
    14        4.733649       4.7613993       12.807742
    14       4.7367405        2.017303       15.511778
    14       2.0335805       4.6866647       15.528635
    14      0.64578273       0.6752656       16.846466
    14       3.3657236       3.3793173        16.87289
    14       3.4009344      0.66839883       19.564635
    14      0.67320305       3.3453053       19.596726
    14       2.0371417       2.0688534       18.212285
    14       4.7013435       4.6659765       18.215428
    14       4.7263406       2.0090107       20.890845
    14       2.0409729       4.6905884       20.882511
32
MD step # 13
    14      0.68790407      0.63973385      0.66049299
    14       3.4069458       3.3780679      0.67874974
    14       3.3752179      0.66588308       3.3781901
    14      0.67374239       3.3461735       3.3592467
    14       2.0642992       2.0230441       2.0392795
    14       4.7132245        4.681315       2.0399016
    14       4.7264813        1.971389       4.7385172
    14       2.0458827       4.6914057        4.713847
    14      0.68111012      0.64734793       6.0959576
    14       3.4065619       3.3412225       6.0898911
    14       3.3972037      0.63232097       8.8281951
    14      0.68078813       3.3798417       8.7943597
    14       2.0093228       1.9841973       7.4544543
    14       4.7378114       4.7229136       7.4261593
    14       4.6933484       2.0427401       10.091319
    14        2.029902       4.7194514        10.11591
    14      0.69364027      0.68385395       11.448263
    14       3.3804152       3.3698636       11.456649
    14       3.3911656       0.6411245       14.183116
    14      0.72038651       3.3728449        14.15351
    14       2.0506169       2.0406678       12.798102
    14       4.7344542       4.7597707       12.807593
    14        4.736063       2.0182785       15.511325
    14       2.0331867       4.6881595       15.528563
    14      0.64706453       0.6744521       16.847386
    14       3.3664256       3.3784144       16.872228
    14       3.3998333      0.66833927       19.563812
    14      0.67314267       3.3457969       19.595696