32
MD step # 1
    14 +6.87295704e-01 +6.38683146e-01 +6.57887525e-01
    14 +3.41084367e+00 +3.38266916e+00 +6.83080937e-01
    14 +3.37411100e+00 +6.69861406e-01 +3.37716473e+00
    14 +6.73436967e-01 +3.34862811e+00 +3.35473051e+00
    14 +2.06908589e+00 +2.02311079e+00 +2.04462466e+00
    14 +4.70944562e+00 +4.67279193e+00 +2.04056662e+00
    14 +4.72285570e+00 +1.96782356e+00 +4.74002511e+00
    14 +2.04842426e+00 +4.69176461e+00 +4.71165916e+00
    14 +6.78681182e-01 +6.48484284e-01 +6.10002517e+00
    14 +3.41065009e+00 +3.34245881e+00 +6.08979091e+00
    14 +3.40084195e+00 +6.29069848e-01 +8.83742883e+00
    14 +6.82404120e-01 +3.38112207e+00 +8.79921748e+00
    14 +2.00356514e+00 +1.98193795e+00 +7.45233620e+00
    14 +4.73790002e+00 +4.72580350e+00 +7.42313322e+00
    14 +4.68637209e+00 +2.04491304e+00 +1.00864573e+01
    14 +2.03056705e+00 +4.72282438e+00 +1.01107271e+01
    14 +6.96075212e-01 +6.77210858e-01 +1.14498549e+01
    14 +3.37915056e+00 +3.36354348e+00 +1.14550053e+01
    14 +3.39674104e+00 +6.35509831e-01 +1.41834075e+01
    14 +7.28590217e-01 +3.37234884e+00 +1.41539851e+01
    14 +2.04856298e+00 +2.04946385e+00 +1.27956504e+01
    14 +4.72999936e+00 +4.76883533e+00 +1.28084806e+01
    14 +4.73985678e+00 +2.01275967e+00 +1.55138465e+01
    14 +2.03534549e+00 +4.67990735e+00 +1.55289493e+01
    14 +6.39964715e-01 +6.79068889e-01 +1.68423530e+01
    14 +3.36251490e+00 +3.38342499e+00 +1.68758944e+01
    14 +3.40586697e+00 +6.68692998e-01 +1.95683603e+01
    14 +6.73544704e-01 +3.34312412e+00 +1.96013306e+01
    14 +2.03949333e+00 +2.07759197e+00 +1.82112937e+01
    14 +4.69631790e+00 +4.66052142e+00 +1.82133847e+01
    14 +4.72462750e+00 +2.01059757e+00 +2.08847871e+01
    14 +2.03999442e+00 +4.68795970e+00 +2.08791045e+01
32
MD step # 2
    14 +6.87307814e-01 +6.38702130e-01 +6.57940934e-01
    14 +3.41076242e+00 +3.38257185e+00 +6.82991063e-01
    14 +3.37413515e+00 +6.69777037e-01 +3.37718675e+00
    14 +6.73444662e-01 +3.34857539e+00 +3.35482361e+00
    14 +2.06898894e+00 +2.02311392e+00 +2.04451441e+00
    14 +4.70952186e+00 +4.67296986e+00 +2.04055446e+00
    14 +4.72292947e+00 +1.96789721e+00 +4.73999372e+00
    14 +2.04837273e+00 +4.69175874e+00 +4.71170216e+00
    14 +6.78730519e-01 +6.48459406e-01 +6.09994223e+00
    14 +3.41056747e+00 +3.34243247e+00 +6.08979351e+00
    14 +3.40076873e+00 +6.29135098e-01 +8.83724069e+00
    14 +6.82369799e-01 +3.38109561e+00 +8.79911941e+00
    14 +2.00368305e+00 +1.98198420e+00 +7.45238086e+00
    14 +4.73789788e+00 +4.72574542e+00 +7.42319606e+00
    14 +4.68651606e+00 +2.04486904e+00 +1.00865543e+01
    14 +2.03055404e+00 +4.72275466e+00 +1.01108324e+01
    14 +6.96026866e-01 +6.77349710e-01 +1.14498227e+01
    14 +3.37917761e+00 +3.36367638e+00 +1.14550390e+01
    14 +3.39662445e+00 +6.35626122e-01 +1.41834053e+01
    14 +7.28419243e-01 +3.37235939e+00 +1.41539764e+01
    14 +2.04860480e+00 +2.04928009e+00 +1.27956986e+01
    14 +4.73009053e+00 +4.76864578e+00 +1.28084600e+01
    14 +4.73977453e+00 +2.01287822e+00 +1.55137918e+01
    14 +2.03529999e+00 +4.68008069e+00 +1.55289405e+01
    14 +6.40114051e-01 +6.78968794e-01 +1.68424585e+01
    14 +3.36259861e+00 +3.38331928e+00 +1.68758193e+01
    14 +3.40574237e+00 +6.68683703e-01 +1.95682663e+01
    14 +6.73535621e-01 +3.34317896e+00 +1.96012155e+01
    14 +2.03943406e+00 +2.07737494e+00 +1.82113192e+01
    14 +4.69644416e+00 +4.66065666e+00 +1.82134366e+01
    14 +4.72466903e+00 +2.01056157e+00 +2.08849389e+01
    14 +2.04001999e+00 +4.68802511e+00 +2.08791880e+01
32
MD step # 3
    14 +6.87328060e-01 +6.38733841e-01 +6.58029870e-01
    14 +3.41062735e+00 +3.38241009e+00 +6.82841659e-01
    14 +3.37417524e+00 +6.69636834e-01 +3.37722333e+00
    14 +6.73457402e-01 +3.34848785e+00 +3.35497846e+00
    14 +2.06882758e+00 +2.02311889e+00 +2.04433099e+00
    14 +4.70964876e+00 +4.67326570e+00 +2.04053411e+00
    14 +4.72305218e+00 +1.96801976e+00 +4.73994153e+00
    14 +2.04828697e+00 +4.69174886e+00 +4.71177381e+00
    14 +6.78812698e-01 +6.48418083e-01 +6.09980427e+00
    14 +3.41043001e+00 +3.34238869e+00 +6.08979787e+00
    14 +3.40064688e+00 +6.29243730e-01 +8.83692772e+00
    14 +6.82312804e-01 +3.38105152e+00 +8.79895624e+00
    14 +2.00387921e+00 +1.98206115e+00 +7.45245501e+00
    14 +4.73789428e+00 +4.72564875e+00 +7.42330047e+00
    14 +4.68675548e+00 +2.04479582e+00 +1.00867156e+01
    14 +2.03053228e+00 +4.72263880e+00 +1.01110075e+01
    14 +6.95946393e-01 +6.77580576e-01 +1.14497692e+01
    14 +3.37922263e+00 +3.36389725e+00 +1.14550953e+01
    14 +3.39643072e+00 +6.35819490e-01 +1.41834015e+01
    14 +7.28134971e-01 +3.37237683e+00 +1.41539619e+01
    14 +2.04867435e+00 +2.04897462e+00 +1.27957789e+01
    14 +4.73024213e+00 +4.76833072e+00 +1.28084259e+01
    14 +4.73963788e+00 +2.01307513e+00 +1.55137010e+01
    14 +2.03522433e+00 +4.68036888e+00 +1.55289257e+01
    14 +6.40362304e-01 +6.78802579e-01 +1.68426340e+01
    14 +3.36273772e+00 +3.38314355e+00 +1.68756945e+01
    14 +3.40553510e+00 +6.68668308e-01 +1.95681102e+01
    14 +6.73520605e-01 +3.34327024e+00 +1.96010240e+01
    14 +2.03933544e+00 +2.07701374e+00 +1.82113616e+01
    14 +4.69665418e+00 +4.66088178e+00 +1.82135228e+01
    14 +4.72473812e+00 +2.01050151e+00 +2.08851915e+01
    14 +2.04006242e+00 +4.68813392e+00 +2.08793269e+01
32
MD step # 4
    14 +6.87356552e-01 +6.38778404e-01 +6.58154219e-01
    14 +3.41043899e+00 +3.38218455e+00 +6.82633298e-01
    14 +3.37423100e+00 +6.69441423e-01 +3.37727431e+00
    14 +6.73475052e-01 +3.34836596e+00 +3.35519462e+00
    14 +2.06860211e+00 +2.02312530e+00 +2.04407490e+00
    14 +4.70982605e+00 +4.67367837e+00 +2.04050546e+00
    14 +4.72322347e+00 +1.96819088e+00 +4.73986870e+00
    14 +2.04816714e+00 +4.69173481e+00 +4.71187406e+00
    14 +6.78927658e-01 +6.48360532e-01 +6.09961169e+00
    14 +3.41023808e+00 +3.34232767e+00 +6.08980398e+00
    14 +3.40047667e+00 +6.29395582e-01 +8.83649077e+00
    14 +6.82233452e-01 +3.38098976e+00 +8.79872842e+00
    14 +2.00415312e+00 +1.98216860e+00 +7.45255819e+00
    14 +4.73788911e+00 +4.72551368e+00 +7.42344592e+00
    14 +4.68708954e+00 +2.04469357e+00 +1.00869409e+01
    14 +2.03050160e+00 +4.72247732e+00 +1.01112518e+01
    14 +6.95833937e-01 +6.77902622e-01 +1.14496945e+01
    14 +3.37928558e+00 +3.36420515e+00 +1.14551741e+01
    14 +3.39616074e+00 +6.36089259e-01 +1.41833956e+01
    14 +7.27738440e-01 +3.37240092e+00 +1.41539416e+01
    14 +2.04877140e+00 +2.04854862e+00 +1.27958914e+01
    14 +4.73045361e+00 +4.76789139e+00 +1.28083786e+01
    14 +4.73944747e+00 +2.01334933e+00 +1.55135744e+01
    14 +2.03511878e+00 +4.68077088e+00 +1.55289051e+01
    14 +6.40708503e-01 +6.78571193e-01 +1.68428789e+01
    14 +3.36293164e+00 +3.38289852e+00 +1.68755203e+01
    14 +3.40524579e+00 +6.68646967e-01 +1.95678923e+01
    14 +6.73499848e-01 +3.34339773e+00 +1.96007566e+01
    14 +2.03919772e+00 +2.07650906e+00 +1.82114205e+01
    14 +4.69694735e+00 +4.66119636e+00 +1.82136430e+01
    14 +4.72483460e+00 +2.01041731e+00 +2.08855441e+01
    14 +2.04012146e+00 +4.68828578e+00 +2.08795209e+01
32
MD step # 1
    14 +6.87295336e-01 +6.38683466e-01 +6.57887130e-01
    14 +3.41084353e+00 +3.38266946e+00 +6.83080611e-01
    14 +3.37411091e+00 +6.69861582e-01 +3.37716458e+00
    14 +6.73436714e-01 +3.34862815e+00 +3.35473052e+00
    14 +2.06908575e+00 +2.02311032e+00 +2.04462481e+00
    14 +4.70944592e+00 +4.67279187e+00 +2.04056666e+00
    14 +4.72285616e+00 +1.96782331e+00 +4.74002521e+00
    14 +2.04842421e+00 +4.69176464e+00 +4.71165942e+00
    14 +6.78680855e-01 +6.48484509e-01 +6.10002473e+00
    14 +3.41064958e+00 +3.34245895e+00 +6.08979058e+00
    14 +3.40084149e+00 +6.29070067e-01 +8.83742802e+00
    14 +6.82403901e-01 +3.38112262e+00 +8.79921676e+00
    14 +2.00356538e+00 +1.98193792e+00 +7.45233667e+00
    14 +4.73790046e+00 +4.72580317e+00 +7.42313381e+00
    14 +4.68637246e+00 +2.04491282e+00 +1.00864584e+01
    14 +2.03056754e+00 +4.72282380e+00 +1.01107279e+01
    14 +6.96074730e-01 +6.77210836e-01 +1.14498545e+01
    14 +3.37914997e+00 +3.36354365e+00 +1.14550046e+01
    14 +3.39674050e+00 +6.35510101e-01 +1.41834071e+01
    14 +7.28590112e-01 +3.37234931e+00 +1.41539850e+01
    14 +2.04856337e+00 +2.04946366e+00 +1.27956506e+01
    14 +4.72999999e+00 +4.76883502e+00 +1.28084808e+01
    14 +4.73985744e+00 +2.01275946e+00 +1.55138470e+01
    14 +2.03534577e+00 +4.67990689e+00 +1.55289497e+01
    14 +6.39964428e-01 +6.79069260e-01 +1.68423525e+01
    14 +3.36251441e+00 +3.38342525e+00 +1.68758939e+01
    14 +3.40586693e+00 +6.68693433e-01 +1.95683599e+01
    14 +6.73544451e-01 +3.34312409e+00 +1.96013302e+01
    14 +2.03949339e+00 +2.07759144e+00 +1.82112939e+01
    14 +4.69631820e+00 +4.66052168e+00 +1.82133850e+01
    14 +4.72462811e+00 +2.01059673e+00 +2.08847876e+01
    14 +2.03999449e+00 +4.68796004e+00 +2.08791053e+01
32
MD step # 2
    14 +6.87306349e-01 +6.38703407e-01 +6.57939354e-01
    14 +3.41076187e+00 +3.38257304e+00 +6.82989757e-01
    14 +3.37413479e+00 +6.69777736e-01 +3.37718616e+00
    14 +6.73443654e-01 +3.34857556e+00 +3.35482367e+00
    14 +2.06898837e+00 +2.02311204e+00 +2.04451498e+00
    14 +4.70952303e+00 +4.67296963e+00 +2.04055460e+00
    14 +4.72293130e+00 +1.96789622e+00 +4.73999411e+00
    14 +2.04837253e+00 +4.69175885e+00 +4.71170323e+00
    14 +6.78729218e-01 +6.48460308e-01 +6.09994050e+00
    14 +3.41056542e+00 +3.34243303e+00 +6.08979221e+00
    14 +3.40076692e+00 +6.29135970e-01 +8.83723748e+00
    14 +6.82368925e-01 +3.38109780e+00 +8.79911655e+00
    14 +2.00368400e+00 +1.98198408e+00 +7.45238273e+00
    14 +4.73789966e+00 +4.72574411e+00 +7.42319842e+00
    14 +4.68651754e+00 +2.04486816e+00 +1.00865583e+01
    14 +2.03055600e+00 +4.72275235e+00 +1.01108355e+01
    14 +6.96024945e-01 +6.77349617e-01 +1.14498209e+01
    14 +3.37917523e+00 +3.36367705e+00 +1.14550364e+01
    14 +3.39662233e+00 +6.35627196e-01 +1.41834038e+01
    14 +7.28418825e-01 +3.37236129e+00 +1.41539759e+01
    14 +2.04860635e+00 +2.04927935e+00 +1.27956993e+01
    14 +4.73009301e+00 +4.76864456e+00 +1.28084608e+01
    14 +4.73977717e+00 +2.01287737e+00 +1.55137939e+01
    14 +2.03530110e+00 +4.68007885e+00 +1.55289419e+01
    14 +6.40112906e-01 +6.78970271e-01 +1.68424565e+01
    14 +3.36259665e+00 +3.38332029e+00 +1.68758172e+01
    14 +3.40574220e+00 +6.68685444e-01 +1.95682651e+01
    14 +6.73534612e-01 +3.34317885e+00 +1.96012139e+01
    14 +2.03943430e+00 +2.07737282e+00 +1.82113202e+01
    14 +4.69644535e+00 +4.66065772e+00 +1.82134379e+01
    14 +4.72467145e+00 +2.01055824e+00 +2.08849409e+01
    14 +2.04002027e+00 +4.68802648e+00 +2.08791911e+01
32
MD step # 3
    14 +6.87324775e-01 +6.38736699e-01 +6.58026338e-01
    14 +3.41062614e+00 +3.38241276e+00 +6.82838745e-01
    14 +3.37417446e+00 +6.69638392e-01 +3.37722203e+00
    14 +6.73455151e-01 +3.34848821e+00 +3.35497861e+00
    14 +2.06882630e+00 +2.02311467e+00 +2.04433228e+00
    14 +4.70965137e+00 +4.67326518e+00 +2.04053444e+00
    14 +4.72305627e+00 +1.96801757e+00 +4.73994238e+00
    14 +2.04828652e+00 +4.69174911e+00 +4.71177619e+00
    14 +6.78809791e-01 +6.48420102e-01 +6.09980041e+00
    14 +3.41042542e+00 +3.34238993e+00 +6.08979495e+00
    14 +3.40064284e+00 +6.29245680e-01 +8.83692053e+00
    14 +6.82310860e-01 +3.38105642e+00 +8.79894985e+00
    14 +2.00388133e+00 +1.98206090e+00 +7.45245918e+00
    14 +4.73789826e+00 +4.72564584e+00 +7.42330575e+00
    14 +4.68675879e+00 +2.04479387e+00 +1.00867246e+01
    14 +2.03053665e+00 +4.72263362e+00 +1.01110145e+01
    14 +6.95942098e-01 +6.77580350e-01 +1.14497652e+01
    14 +3.37921730e+00 +3.36389874e+00 +1.14550895e+01
    14 +3.39642597e+00 +6.35821884e-01 +1.41833981e+01
    14 +7.28134044e-01 +3.37238109e+00 +1.41539607e+01
    14 +2.04867781e+00 +2.04897296e+00 +1.27957806e+01
    14 +4.73024768e+00 +4.76832800e+00 +1.28084276e+01
    14 +4.73964379e+00 +2.01307324e+00 +1.55137056e+01
    14 +2.03522682e+00 +4.68036477e+00 +1.55289289e+01
    14 +6.40359744e-01 +6.78805878e-01 +1.68426294e+01
    14 +3.36273335e+00 +3.38314581e+00 +1.68756898e+01
    14 +3.40553473e+00 +6.68672205e-01 +1.95681073e+01
    14 +6.73518351e-01 +3.34326996e+00 +1.96010204e+01
    14 +2.03933598e+00 +2.07700898e+00 +1.82113637e+01
    14 +4.69665684e+00 +4.66088415e+00 +1.82135258e+01
    14 +4.72474354e+00 +2.01049408e+00 +2.08851960e+01
    14 +2.04006304e+00 +4.68813699e+00 +2.08793338e+01
32
MD step # 4
    14 +6.87350737e-01 +6.38783450e-01 +6.58148005e-01
    14 +3.41043686e+00 +3.38218927e+00 +6.82628186e-01
    14 +3.37422966e+00 +6.69444156e-01 +3.37727202e+00
    14 +6.73471095e-01 +3.34836658e+00 +3.35519489e+00
    14 +2.06859985e+00 +2.02311786e+00 +2.04407715e+00
    14 +4.70983064e+00 +4.67367743e+00 +2.04050602e+00
    14 +4.72323066e+00 +1.96818705e+00 +4.73987015e+00
    14 +2.04816632e+00 +4.69173526e+00 +4.71187824e+00
    14 +6.78922543e-01 +6.48364096e-01 +6.09960491e+00
    14 +3.41022995e+00 +3.34232983e+00 +6.08979884e+00
    14 +3.40046954e+00 +6.29399021e-01 +8.83647809e+00
    14 +6.82230061e-01 +3.38099840e+00 +8.79871715e+00
    14 +2.00415682e+00 +1.98216818e+00 +7.45256555e+00
    14 +4.73789615e+00 +4.72550856e+00 +7.42345524e+00
    14 +4.68709539e+00 +2.04469012e+00 +1.00869567e+01
    14 +2.03050930e+00 +4.72246817e+00 +1.01112642e+01
    14 +6.95826373e-01 +6.77902181e-01 +1.14496876e+01
    14 +3.37927616e+00 +3.36420773e+00 +1.14551639e+01
    14 +3.39615237e+00 +6.36093462e-01 +1.41833897e+01
    14 +7.27736826e-01 +3.37240846e+00 +1.41539394e+01
    14 +2.04877747e+00 +2.04854570e+00 +1.27958944e+01
    14 +4.73046340e+00 +4.76788664e+00 +1.28083816e+01
    14 +4.73945792e+00 +2.01334600e+00 +1.55135827e+01
    14 +2.03512314e+00 +4.68076363e+00 +1.55289107e+01
    14 +6.40703996e-01 +6.78576995e-01 +1.68428708e+01
    14 +3.36292393e+00 +3.38290249e+00 +1.68755122e+01
    14 +3.40524517e+00 +6.68653844e-01 +1.95678873e+01
    14 +6.73495893e-01 +3.34339722e+00 +1.96007503e+01
    14 +2.03919868e+00 +2.07650068e+00 +1.82114242e+01
    14 +4.69695200e+00 +4.66120057e+00 +1.82136481e+01
    14 +4.72484414e+00 +2.01040419e+00 +2.08855520e+01
    14 +2.04012255e+00 +4.68829124e+00 +2.08795331e+01
32
MD step # 5
    14 +6.87384426e-01 +6.38843825e-01 +6.58304267e-01
    14 +3.41019480e+00 +3.38190345e+00 +6.82358935e-01
    14 +3.37430006e+00 +6.69195891e-01 +3.37733591e+00
    14 +6.73491331e-01 +3.34821136e+00 +3.35547192e+00
    14 +2.06830943e+00 +2.02312106e+00 +2.04375024e+00
    14 +4.71006049e+00 +4.67420488e+00 +2.04046912e+00
    14 +4.72345393e+00 +1.96840433e+00 +4.73977765e+00
    14 +2.04801215e+00 +4.69171707e+00 +4.71200934e+00
    14 +6.79067456e-01 +6.48292577e-01 +6.09935462e+00
    14 +3.40997955e+00 +3.34225297e+00 +6.08980398e+00
    14 +3.40024744e+00 +6.29595765e-01 +8.83591143e+00
    14 +6.82127040e-01 +3.38092364e+00 +8.79841909e+00
    14 +2.00450971e+00 +1.98230571e+00 +7.45270112e+00
    14 +4.73789316e+00 +4.72533256e+00 +7.42364607e+00
    14 +4.68752618e+00 +2.04455717e+00 +1.00872541e+01
    14 +2.03047367e+00 +4.72225680e+00 +1.01115839e+01
    14 +6.95678017e-01 +6.78313898e-01 +1.14495883e+01
    14 +3.37935178e+00 +3.36460262e+00 +1.14552598e+01
    14 +3.39580284e+00 +6.36440940e-01 +1.41833782e+01
    14 +7.27228651e-01 +3.37244303e+00 +1.41539119e+01
    14 +2.04890495e+00 +2.04799928e+00 +1.27960406e+01
    14 +4.73073936e+00 +4.76732233e+00 +1.28083232e+01
    14 +4.73922044e+00 +2.01369419e+00 +1.55134255e+01
    14 +2.03499038e+00 +4.68127400e+00 +1.55288873e+01
    14 +6.41144335e-01 +6.78284921e-01 +1.68431799e+01
    14 +3.36316759e+00 +3.38259130e+00 +1.68752849e+01
    14 +3.40487436e+00 +6.68630542e-01 +1.95676057e+01
    14 +6.73467565e-01 +3.34356034e+00 +1.96004043e+01
    14 +2.03902274e+00 +2.07584893e+00 +1.82115012e+01
    14 +4.69732994e+00 +4.66160644e+00 +1.82138044e+01
    14 +4.72497295e+00 +2.01028850e+00 +2.08860078e+01
    14 +2.04019836e+00 +4.68848876e+00 +2.08797884e+01
32
MD step # 6
    14 +6.87426109e-01 +6.38918064e-01 +6.58495061e-01
    14 +3.40990094e+00 +3.38155648e+00 +6.82032126e-01
    14 +3.37438522e+00 +6.68894712e-01 +3.37741343e+00
    14 +6.73515649e-01 +3.34802343e+00 +3.35580891e+00
    14 +2.06795555e+00 +2.02312350e+00 +2.04335238e+00
    14 +4.71034044e+00 +4.67484559e+00 +2.04042345e+00
    14 +4.72372536e+00 +1.96866891e+00 +4.73966512e+00
    14 +2.04782427e+00 +4.69169420e+00 +4.71216942e+00
    14 +6.79244534e-01 +6.48205926e-01 +6.09905031e+00
    14 +3.40967487e+00 +3.34215968e+00 +6.08981043e+00
    14 +3.39997703e+00 +6.29835639e-01 +8.83522217e+00
    14 +6.82002474e-01 +3.38083198e+00 +8.79805654e+00
    14 +2.00493904e+00 +1.98247319e+00 +7.45286496e+00
    14 +4.73788905e+00 +4.72511822e+00 +7.42387720e+00
    14 +4.68804967e+00 +2.04439534e+00 +1.00876161e+01
    14 +2.03042933e+00 +4.72200053e+00 +1.01119724e+01
    14 +6.95497338e-01 +6.78813944e-01 +1.14494678e+01
    14 +3.37944415e+00 +3.36508159e+00 +1.14553774e+01
    14 +3.39537910e+00 +6.36863041e-01 +1.41833629e+01
    14 +7.26611433e-01 +3.37248428e+00 +1.41538781e+01
    14 +2.04905974e+00 +2.04733590e+00 +1.27962193e+01
    14 +4.73107452e+00 +4.76663749e+00 +1.28082529e+01
    14 +4.73893249e+00 +2.01411586e+00 +1.55132348e+01
    14 +2.03482895e+00 +4.68189404e+00 +1.55288589e+01
    14 +6.41679044e-01 +6.77931365e-01 +1.68435558e+01
    14 +3.36346328e+00 +3.38221348e+00 +1.68750088e+01
    14 +3.40442341e+00 +6.68602532e-01 +1.95672637e+01
    14 +6.73433811e-01 +3.34375894e+00 +1.95999836e+01
    14 +2.03880857e+00 +2.07505497e+00 +1.82115943e+01
    14 +4.69778950e+00 +4.66210110e+00 +1.82139937e+01
    14 +4.72512957e+00 +2.01014687e+00 +2.08865620e+01
    14 +2.04028996e+00 +4.68872899e+00 +2.08800991e+01
32
MD step # 7
    14 +6.87476140e-01 +6.39006487e-01 +6.58720310e-01
    14 +3.40955647e+00 +3.38114978e+00 +6.81649115e-01
    14 +3.37448459e+00 +6.68541999e-01 +3.37750423e+00
    14 +6.73543788e-01 +3.34780390e+00 +3.35620494e+00
    14 +2.06753875e+00 +2.02312427e+00 +2.04288453e+00
    14 +4.71066999e+00 +4.67559717e+00 +2.04036863e+00
    14 +4.72404409e+00 +1.96898028e+00 +4.73953286e+00
    14 +2.04760296e+00 +4.69166625e+00 +4.71235844e+00
    14 +6.79453818e-01 +6.48104611e-01 +6.09869293e+00
    14 +3.40931672e+00 +3.34205033e+00 +6.08981832e+00
    14 +3.39965894e+00 +6.30118329e-01 +8.83441225e+00
    14 +6.81857207e-01 +3.38072319e+00 +8.79763052e+00
    14 +2.00544368e+00 +1.98267028e+00 +7.45305588e+00
    14 +4.73788353e+00 +4.72486596e+00 +7.42414732e+00
    14 +4.68866406e+00 +2.04420504e+00 +1.00880418e+01
    14 +2.03037576e+00 +4.72170066e+00 +1.01124285e+01
    14 +6.95284703e-01 +6.79400402e-01 +1.14493265e+01
    14 +3.37955326e+00 +3.36564240e+00 +1.14555170e+01
    14 +3.39488330e+00 +6.37358207e-01 +1.41833430e+01
    14 +7.25887508e-01 +3.37253159e+00 +1.41538379e+01
    14 +2.04924124e+00 +2.04655827e+00 +1.27964305e+01
    14 +4.73146758e+00 +4.76583506e+00 +1.28081716e+01
    14 +4.73859548e+00 +2.01460860e+00 +1.55130114e+01
    14 +2.03463933e+00 +4.68262151e+00 +1.55288254e+01
    14 +6.42306027e-01 +6.77518450e-01 +1.68439975e+01
    14 +3.36380970e+00 +3.38177057e+00 +1.68746852e+01
    14 +3.40389366e+00 +6.68570104e-01 +1.95668625e+01
    14 +6.73395195e-01 +3.34399260e+00 +1.95994893e+01
    14 +2.03855664e+00 +2.07412024e+00 +1.82117026e+01
    14 +4.69832931e+00 +4.66268383e+00 +1.82142151e+01
    14 +4.72531353e+00 +2.00997908e+00 +2.08872129e+01
    14 +2.04039668e+00 +4.68901121e+00 +2.08804644e+01
32
MD step # 8
    14 +6.87534962e-01 +6.39109502e-01 +6.58979974e-01
    14 +3.40916281e+00 +3.38068501e+00 +6.81211527e-01
    14 +3.37459748e+00 +6.68139375e-01 +3.37760791e+00
    14 +6.73575433e-01 +3.34755414e+00 +3.35665894e+00
    14 +2.06705969e+00 +2.02312219e+00 +2.04234781e+00
    14 +4.71104853e+00 +4.67645685e+00 +2.04030420e+00
    14 +4.72440910e+00 +1.96933782e+00 +4.73938124e+00
    14 +2.04734857e+00 +4.69163265e+00 +4.71257637e+00
    14 +6.79695396e-01 +6.47989188e-01 +6.09828359e+00
    14 +3.40890600e+00 +3.34192539e+00 +6.08982778e+00
    14 +3.39929386e+00 +6.30443483e-01 +8.83348392e+00
    14 +6.81692258e-01 +3.38059696e+00 +8.79714219e+00
    14 +2.00602228e+00 +1.98289663e+00 +7.45327248e+00
    14 +4.73787621e+00 +4.72457626e+00 +7.42445486e+00
    14 +4.68936722e+00 +2.04398673e+00 +1.00885300e+01
    14 +2.03031227e+00 +4.72135873e+00 +1.01129506e+01
    14 +6.95040545e-01 +6.80070993e-01 +1.14491653e+01
    14 +3.37967913e+00 +3.36628235e+00 +1.14556791e+01
    14 +3.39431800e+00 +6.37924599e-01 +1.41833177e+01
    14 +7.25059638e-01 +3.37258413e+00 +1.41537912e+01
    14 +2.04944870e+00 +2.04566963e+00 +1.27966744e+01
    14 +4.73191704e+00 +4.76491855e+00 +1.28080799e+01
    14 +4.73821108e+00 +2.01516954e+00 +1.55127564e+01
    14 +2.03442211e+00 +4.68345375e+00 +1.55287868e+01
    14 +6.43022804e-01 +6.77048718e-01 +1.68445035e+01
    14 +3.36420532e+00 +3.38126437e+00 +1.68743151e+01
    14 +3.40328667e+00 +6.68533597e-01 +1.95664036e+01
    14 +6.73352414e-01 +3.34426081e+00 +1.95989227e+01
    14 +2.03826753e+00 +2.07304637e+00 +1.82118252e+01
    14 +4.69894774e+00 +4.66335385e+00 +1.82144672e+01
    14 +4.72552427e+00 +2.00978488e+00 +2.08879584e+01
    14 +2.04051771e+00 +4.68933461e+00 +2.08808833e+01
32
MD step # 9
    14 +6.87603136e-01 +6.39227614e-01 +6.59274053e-01
    14 +3.40872157e+00 +3.38016411e+00 +6.80721223e-01
    14 +3.37472311e+00 +6.67688756e-01 +3.37772402e+00
    14 +6.73610225e-01 +3.34727571e+00 +3.35716969e+00
    14 +2.06651901e+00 +2.02311588e+00 +2.04174351e+00
    14 +4.71147543e+00 +4.67742142e+00 +2.04022960e+00
    14 +4.72481924e+00 +1.96974084e+00 +4.73921066e+00
    14 +2.04706143e+00 +4.69159277e+00 +4.71282322e+00
    14 +6.79969410e-01 +6.47860327e-01 +6.09782352e+00
    14 +3.40844378e+00 +3.34178539e+00 +6.08983898e+00
    14 +3.39888258e+00 +6.30810740e-01 +8.83243975e+00
    14 +6.81508837e-01 +3.38045287e+00 +8.79659290e+00
    14 +2.00667335e+00 +1.98315185e+00 +7.45351304e+00
    14 +4.73786663e+00 +4.72424967e+00 +7.42479794e+00
    14 +4.69015668e+00 +2.04374095e+00 +1.00890796e+01
    14 +2.03023800e+00 +4.72097653e+00 +1.01135370e+01
    14 +6.94765336e-01 +6.80823079e-01 +1.14489848e+01
    14 +3.37982181e+00 +3.36699832e+00 +1.14558641e+01
    14 +3.39368619e+00 +6.38560086e-01 +1.41832856e+01
    14 +7.24131027e-01 +3.37264096e+00 +1.41537376e+01
    14 +2.04968126e+00 +2.04467369e+00 +1.27969510e+01
    14 +4.73242118e+00 +4.76389204e+00 +1.28079790e+01
    14 +4.73778124e+00 +2.01579530e+00 +1.55124709e+01
    14 +2.03417790e+00 +4.68438773e+00 +1.55287432e+01
    14 +6.43826526e-01 +6.76525136e-01 +1.68450727e+01
    14 +3.36464832e+00 +3.38069700e+00 +1.68739001e+01
    14 +3.40260420e+00 +6.68493397e-01 +1.95658888e+01
    14 +6.73306306e-01 +3.34456299e+00 +1.95982855e+01
    14 +2.03794182e+00 +2.07183515e+00 +1.82119612e+01
    14 +4.69964296e+00 +4.66411032e+00 +1.82147486e+01
    14 +4.72576116e+00 +2.00956389e+00 +2.08887964e+01
    14 +2.04065209e+00 +4.68969828e+00 +2.08813548e+01
32
MD step # 10
    14 +6.87681329e-01 +6.39361427e-01 +6.59602581e-01
    14 +3.40823461e+00 +3.37958924e+00 +6.80180298e-01
    14 +3.37486058e+00 +6.67192293e-01 +3.37785202e+00
    14 +6.73647734e-01 +3.34697044e+00 +3.35773581e+00
    14 +2.06591739e+00 +2.02310371e+00 +2.04107298e+00
    14 +4.71195004e+00 +4.67848728e+00 +2.04014415e+00
    14 +4.72527320e+00 +1.97018859e+00 +4.73902160e+00
    14 +2.04674192e+00 +4.69154581e+00 +4.71309905e+00
    14 +6.80276070e-01 +6.47718790e-01 +6.09731413e+00
    14 +3.40793120e+00 +3.34163094e+00 +6.08985212e+00
    14 +3.39842599e+00 +6.31219702e-01 +8.83128258e+00
    14 +6.81308335e-01 +3.38029039e+00 +8.79598413e+00
    14 +2.00739520e+00 +1.98343553e+00 +7.45377559e+00
    14 +4.73785421e+00 +4.72388678e+00 +7.42517446e+00
    14 +4.69102966e+00 +2.04346833e+00 +1.00896893e+01
    14 +2.03015193e+00 +4.72055613e+00 +1.01141858e+01
    14 +6.94459612e-01 +6.81653653e-01 +1.14487860e+01
    14 +3.37998141e+00 +3.36778674e+00 +1.14560728e+01
    14 +3.39299131e+00 +6.39262255e-01 +1.41832457e+01
    14 +7.23105294e-01 +3.37270094e+00 +1.41536771e+01
    14 +2.04993793e+00 +2.04357471e+00 +1.27972605e+01
    14 +4.73297803e+00 +4.76276019e+00 +1.28078699e+01
    14 +4.73730815e+00 +2.01648201e+00 +1.55121562e+01
    14 +2.03390744e+00 +4.68542001e+00 +1.55286946e+01
    14 +6.44713959e-01 +6.75951094e-01 +1.68457032e+01
    14 +3.36513666e+00 +3.38007087e+00 +1.68734418e+01
    14 +3.40184823e+00 +6.68449930e-01 +1.95653200e+01
    14 +6.73257849e-01 +3.34489852e+00 +1.95975795e+01
    14 +2.03758017e+00 +2.07048851e+00 +1.82121093e+01
    14 +4.70041290e+00 +4.66495243e+00 +1.82150577e+01
    14 +4.72602351e+00 +2.00931566e+00 +2.08897242e+01
    14 +2.04079874e+00 +4.69010120e+00 +2.08818779e+01
32
MD step # 11
    14 +6.87779733e-01 +6.39527476e-01 +6.60003738e-01
    14 +3.40764844e+00 +3.37889729e+00 +6.79529450e-01
    14 +3.37502431e+00 +6.66595955e-01 +3.37800590e+00
    14 +6.73691623e-01 +3.34660593e+00 +3.35842073e+00
    14 +2.06518616e+00 +2.02308159e+00 +2.04026070e+00
    14 +4.71252633e+00 +4.67977217e+00 +2.04003682e+00
    14 +4.72582147e+00 +1.97073177e+00 +4.73879293e+00
    14 +2.04635361e+00 +4.69148500e+00 +4.71343597e+00
    14 +6.80651314e-01 +6.47549418e-01 +6.09669867e+00
    14 +3.40731073e+00 +3.34144510e+00 +6.08986908e+00
    14 +3.39787258e+00 +6.31717157e-01 +8.82988285e+00
    14 +6.81069804e-01 +3.38008977e+00 +8.79524771e+00
    14 +2.00826882e+00 +1.98377996e+00 +7.45408729e+00
    14 +4.73783657e+00 +4.72344647e+00 +7.42562454e+00
    14 +4.69208281e+00 +2.04313830e+00 +1.00904275e+01
    14 +2.03004235e+00 +4.72005220e+00 +1.01149688e+01
    14 +6.94088795e-01 +6.82654078e-01 +1.14485474e+01
    14 +3.38017661e+00 +3.36873318e+00 +1.14563306e+01
    14 +3.39215846e+00 +6.40108575e-01 +1.41831909e+01
    14 +7.21869421e-01 +3.37276914e+00 +1.41536022e+01
    14 +2.05024684e+00 +2.04225220e+00 +1.27976391e+01
    14 +4.73364899e+00 +4.76139933e+00 +1.28077419e+01
    14 +4.73674055e+00 +2.01730295e+00 +1.55117779e+01
    14 +2.03358053e+00 +4.68666466e+00 +1.55286353e+01
    14 +6.45782732e-01 +6.75265600e-01 +1.68464660e+01
    14 +3.36572358e+00 +3.37931732e+00 +1.68728899e+01
    14 +3.40093435e+00 +6.68398832e-01 +1.95646346e+01
    14 +6.73203053e-01 +3.34530525e+00 +1.95967256e+01
    14 +2.03714167e+00 +2.06885338e+00 +1.82122846e+01
    14 +4.70134349e+00 +4.66597653e+00 +1.82154276e+01
    14 +4.72634060e+00 +2.00901066e+00 +2.08908453e+01
    14 +2.04097287e+00 +4.69058843e+00 +2.08825113e+01
32
MD step # 12
    14 +6.87904065e-01 +6.39733851e-01 +6.60492993e-01
    14 +3.40694584e+00 +3.37806790e+00 +6.78749737e-01
    14 +3.37521794e+00 +6.65883084e-01 +3.37819008e+00
    14 +6.73742390e-01 +3.34617351e+00 +3.35924672e+00
    14 +2.06429920e+00 +2.02304407e+00 +2.03927954e+00
    14 +4.71322451e+00 +4.68131504e+00 +2.03990164e+00
    14 +4.72648125e+00 +1.97138905e+00 +4.73851724e+00
    14 +2.04588271e+00 +4.69140570e+00 +4.71384703e+00
    14 +6.81110123e-01 +6.47347928e-01 +6.09595759e+00
    14 +3.40656193e+00 +3.34122251e+00 +6.08989106e+00
    14 +3.39720375e+00 +6.32320969e-01 +8.82819514e+00
    14 +6.80788131e-01 +3.37984174e+00 +8.79435972e+00
    14 +2.00932284e+00 +1.98419727e+00 +7.45445433e+00
    14 +4.73781139e+00 +4.72291360e+00 +7.42615927e+00
    14 +4.69334842e+00 +2.04274012e+00 +1.00913187e+01
    14 +2.02990201e+00 +4.71945140e+00 +1.01159105e+01
    14 +6.93640272e-01 +6.83853945e-01 +1.14482626e+01
    14 +3.38041519e+00 +3.36986361e+00 +1.14566492e+01
    14 +3.39116564e+00 +6.41124501e-01 +1.41831156e+01
    14 +7.20386508e-01 +3.37284486e+00 +1.41535095e+01
    14 +2.05061692e+00 +2.04066776e+00 +1.27981018e+01
    14 +4.73445419e+00 +4.75977071e+00 +1.28075931e+01
    14 +4.73606297e+00 +2.01827850e+00 +1.55113251e+01
    14 +2.03318671e+00 +4.68815947e+00 +1.55285631e+01
    14 +6.47064533e-01 +6.74452096e-01 +1.68473856e+01
    14 +3.36642559e+00 +3.37841442e+00 +1.68722281e+01
    14 +3.39983328e+00 +6.68339274e-01 +1.95638121e+01
    14 +6.73142675e-01 +3.34579688e+00 +1.95956963e+01
    14 +2.03661136e+00 +2.06687272e+00 +1.82124904e+01
    14 +4.70246446e+00 +4.66721956e+00 +1.82158676e+01
    14 +4.72672261e+00 +2.00863592e+00 +2.08921954e+01
    14 +2.04117800e+00 +4.69117574e+00 +2.08832762e+01
32
MD step # 13
    14 +6.88061954e-01 +6.39990908e-01 +6.61089031e-01
    14 +3.40610783e+00 +3.37707861e+00 +6.77820323e-01
    14 +3.37544492e+00 +6.65035725e-01 +3.37840937e+00
    14 +6.73800257e-01 +3.34566459e+00 +3.36023924e+00
    14 +2.06322563e+00 +2.02298303e+00 +2.03809810e+00
    14 +4.71406838e+00 +4.68315932e+00 +2.03973074e+00
    14 +4.72727193e+00 +1.97218213e+00 +4.73818620e+00
    14 +2.04531303e+00 +4.69130142e+00 +4.71434808e+00
    14 +6.81670805e-01 +6.47109955e-01 +6.09506880e+00
    14 +3.40566139e+00 +3.34095727e+00 +6.08991976e+00
    14 +3.39639801e+00 +6.33052183e-01 +8.82616747e+00
    14 +6.80458612e-01 +3.37953442e+00 +8.79329274e+00
    14 +2.01059009e+00 +1.98470184e+00 +7.45488201e+00
    14 +4.73777520e+00 +4.72227056e+00 +7.42678980e+00
    14 +4.69486252e+00 +2.04226159e+00 +1.00923908e+01
    14 +2.02972101e+00 +4.71873981e+00 +1.01170380e+01
    14 +6.93099460e-01 +6.85285762e-01 +1.14479252e+01
    14 +3.38070672e+00 +3.37120576e+00 +1.14570440e+01
    14 +3.38998991e+00 +6.42338253e-01 +1.41830115e+01
    14 +7.18615725e-01 +3.37292600e+00 +1.41533947e+01
    14 +2.05105786e+00 +2.03877941e+00 +1.27986666e+01
    14 +4.73541603e+00 +4.75783223e+00 +1.28074223e+01
    14 +4.73525887e+00 +2.01942936e+00 +1.55107859e+01
    14 +2.03271409e+00 +4.68994655e+00 +1.55284751e+01
    14 +6.48594370e-01 +6.73493947e-01 +1.68484908e+01
    14 +3.36726049e+00 +3.37733819e+00 +1.68714384e+01
    14 +3.39851172e+00 +6.68270530e-01 +1.95628299e+01
    14 +6.73078664e-01 +3.34638918e+00 +1.95944599e+01