ITEM: TIMESTEP
33684100
ITEM: NUMBER OF ATOMS
384
ITEM: BOX BOUNDS pp pp pp
0.0000000000000000e+00 1.6590000000000000e+01
0.0000000000000000e+00 1.6590000000000000e+01
0.0000000000000000e+00 1.6590000000000000e+01
ITEM: ATOMS id type xs ys zs
158 2 0.166438 0.151862 0.0370612
273 2 0.0776774 0.096119 0.0697377
13 3 0.0715667 0.0352402 0.0640399
204 2 0.0625204 0.00747795 0.184495
31 3 0.0656204 0.207461 0.0462378
40 3 0.225265 0.132435 0.0391435
364 2 0.123147 0.0154851 0.0458129
120 3 0.0217361 0.0194813 0.223812
321 2 0.00508162 0.19598 0.106484
193 2 0.0489156 0.195925 -0.0127173
284 2 0.241135 0.106012 0.0916475
241 2 0.280937 0.227563 0.0342287
122 3 0.298345 0.0817115 0.182504
344 2 0.35667 0.089833 0.165083
19 3 0.473073 0.114754 0.135387
319 2 0.289268 0.0227247 0.189773
270 2 0.466605 0.1516 0.0347942
219 2 0.497283 0.157468 0.169559
228 2 0.506844 0.0685493 0.152748
374 2 0.688054 0.0185852 0.200829
44 3 0.738343 0.0461863 0.213169
42 3 0.540731 0.235949 0.216399
249 2 0.735592 0.0968849 0.182889
91 3 0.961722 0.187023 0.155461
233 2 0.977357 0.1353 0.176284
260 2 0.78852 0.213314 0.103284
368 2 0.865359 0.169346 0.148987
112 3 0.805458 0.16617 0.135167
317 2 0.818169 0.112586 0.052272
154 2 0.971283 -0.00959985 0.205344
258 2 0.862154 0.00676197 0.105978
99 3 0.816884 0.0599499 0.0188163
362 2 0.145558 0.357227 0.0841146
227 2 0.107228 0.296814 0.0358829
8 3 0.126632 0.373896 0.204749
109 3 0.130103 0.352225 0.0306984
326 2 0.0717562 0.361111 0.226298
153 2 0.162428 0.32984 0.222182
186 2 0.197794 0.473161 0.229805
379 2 0.288554 0.325247 0.0227483
41 3 0.317967 0.272744 0.0252984
289 2 0.39278 0.385876 0.17239
4 3 0.399508 0.326718 0.185696
276 2 0.374616 0.296331 0.143142
141 2 0.498821 0.279295 0.21487
257 2 0.356996 0.479698 0.10607
12 3 0.385928 0.489179 0.157721
318 2 0.265528 0.475433 0.00637879
17 3 0.308203 0.431443 0.0217267
281 2 0.581824 0.262416 0.181324
160 2 0.678058 0.320246 0.0918806
76 3 0.631196 0.342083 0.125861
305 2 0.655707 0.371854 0.168958
194 2 0.613757 0.415351 0.0611961
291 2 0.561448 0.485817 0.0196194
32 3 0.603968 0.445764 0.00924155
192 2 0.729964 0.450358 0.241235
21 3 0.760276 0.292746 0.0374507
208 2 0.792277 0.344587 0.0345098
61 3 0.842568 0.431234 0.0138524
355 2 0.854605 0.472216 0.144814
376 2 0.806052 0.477173 0.00793196
256 2 0.973814 0.275474 0.218359
80 3 0.83646 0.498523 0.195265
342 2 0.107723 0.685042 0.135675
34 3 0.0817872 0.707465 0.0887023
88 3 0.0761637 0.666374 0.25327
343 2 0.0459712 0.743468 0.110034
38 3 0.235415 0.519148 0.239065
168 2 0.33683 0.499804 0.191365
162 2 0.461268 0.558213 0.12115
96 3 0.507633 0.571852 0.09138
214 2 0.549474 0.582932 0.130241
1 3 0.658109 0.602567 0.172662
222 2 0.699536 0.602828 0.127933
78 3 0.733021 0.555945 0.0311611
298 2 0.683528 0.531306 0.00570514
232 2 0.667877 0.555635 0.207066
171 2 0.499319 0.602233 0.00428458
301 2 0.871096 0.543903 0.206601
328 2 0.160417 0.810898 0.0669894
22 3 0.177224 0.867179 0.0801131
332 2 0.225516 0.860897 0.110265
347 2 0.233544 0.911148 0.254544
206 2 0.00527077 0.837506 0.242271
20 3 0.276428 0.914644 0.213021
297 2 0.321978 0.885007 0.236756
165 2 0.611437 0.790856 0.213459
5 3 0.575705 0.98111 0.204397
69 3 0.602276 0.830148 0.172496
356 2 0.621323 0.806023 0.124287
148 2 0.582381 0.922241 0.201159
18 3 0.645446 0.808659 0.00782555
54 3 0.97139 0.836785 0.145343
157 2 0.943223 0.886129 0.132674
247 2 0.837299 0.995682 0.191616
126 3 0.885576 0.985327 0.157436
325 2 0.926619 0.801224 0.156384
264 2 0.0797633 0.0474549 0.30808
161 2 0.14744 0.0987139 0.361113
275 2 0.0718706 0.101234 0.495426
46 3 0.0939982 0.0652049 0.363806
381 2 0.239778 0.194203 0.30333
114 3 0.240268 0.137234 0.319134
221 2 0.0229155 0.149957 0.378914
230 2 0.259842 0.105809 0.274714
323 2 0.297836 0.136623 0.439166
87 3 0.325855 0.15535 0.489278
147 2 0.364642 0.110652 0.503411
377 2 0.536922 0.217567 0.425135
382 2 0.628131 0.104558 0.440391
100 3 0.588913 0.133802 0.477319
71 3 0.707249 0.0610105 0.372017
213 2 0.729834 0.0553687 0.317845
211 2 0.700306 0.00739138 0.390351
309 2 0.519314 0.232947 0.339613
84 3 0.984472 0.201561 0.375207
212 2 0.933143 0.186803 0.399963
339 2 0.795212 0.141816 0.426129
2 3 0.841234 0.17707 0.446312
189 2 0.818151 0.230958 0.434534
316 2 0.217565 0.502491 0.439043
220 2 0.362004 0.267646 0.466078
30 3 0.270971 0.292554 0.281668
358 2 0.316281 0.299372 0.244478
272 2 0.276883 0.323624 0.329386
105 3 0.343553 0.315062 0.432542
320 2 0.382904 0.323933 0.38999
300 2 0.274209 0.390686 0.487853
62 3 0.671251 0.446583 0.235706
106 3 0.527151 0.261829 0.3898
138 2 0.656406 0.430286 0.290486
175 2 0.597872 0.330566 0.394327
25 3 0.649352 0.357108 0.384735
164 2 0.655571 0.393809 0.433665
140 2 0.735302 0.322663 0.393449
26 3 0.985213 0.31151 0.265332
223 2 0.994982 0.267964 0.304161
268 2 0.872489 0.457374 0.306899
121 3 0.900817 0.429927 0.354466
237 2 0.929136 0.38646 0.324216
370 2 0.829306 0.350739 0.394576
45 3 0.792775 0.312887 0.418848
341 2 0.0977614 0.636704 0.2979
128 3 0.194963 0.547664 0.403927
360 2 0.2246 0.537545 0.29419
282 2 0.0809104 0.533207 0.403279
311 2 0.0714392 0.719899 0.2759
90 3 0.0254286 0.546385 0.399928
303 2 0.190756 0.596185 0.43321
199 2 0.296478 0.719629 0.354871
163 2 0.553047 0.643119 0.478129
60 3 0.582163 0.629401 0.428676
145 2 0.641184 0.675607 0.234873
313 2 0.63446 0.677755 0.326402
77 3 0.628668 0.714026 0.280374
243 2 0.729387 0.7262 0.440018
294 2 0.588202 0.571194 0.433159
254 2 0.725311 0.515582 0.492559
191 2 0.990275 0.498117 0.396801
95 3 0.894117 0.643098 0.328251
178 2 0.937216 0.604789 0.346619
179 2 0.903337 0.696249 0.352917
132 2 0.810769 0.609732 0.452685
56 3 0.164757 0.919436 0.334239
250 2 0.149409 0.972655 0.348097
350 2 0.114015 0.891396 0.324749
64 3 0.023251 0.823423 0.295177
348 2 0.201947 0.890336 0.425264
72 3 0.227653 0.852959 0.46578
66 3 0.43736 0.832626 0.268838
200 2 0.461905 0.793593 0.231406
82 3 0.327798 0.764858 0.371355
245 2 0.297182 0.796909 0.410979
352 2 0.393675 0.797512 0.293516
202 2 0.438264 0.965381 0.479302
156 2 0.489783 0.888864 0.348149
172 2 0.700766 0.75715 0.363507
338 2 0.55955 0.994527 0.257551
110 3 0.736527 0.773451 0.40651
119 3 0.513673 0.921264 0.390309
226 2 0.570221 0.911933 0.397003
9 3 0.686981 0.919039 0.47885
293 2 0.714175 0.871132 0.4633
244 2 0.983023 0.796334 0.327692
187 2 0.848607 0.79024 0.418484
59 3 0.90471 0.787881 0.399245
383 2 0.925738 0.787344 0.454773
65 3 0.0677611 0.10892 0.554412
312 2 0.121452 0.130187 0.568495
314 2 0.164041 0.124025 0.723226
89 3 0.21456 0.171687 0.601739
246 2 0.259924 0.167606 0.563118
209 2 0.201296 0.22779 0.604
201 2 0.621937 0.156534 0.520696
190 2 0.595402 0.00626182 0.57521
29 3 0.652709 0.214385 0.638037
365 2 0.668238 0.113589 0.686471
113 3 0.683026 0.0703682 0.720865
239 2 0.733542 0.0873272 0.74504
155 2 0.607866 0.231254 0.671345
169 2 0.682288 0.261465 0.616208
225 2 0.959517 0.111843 0.586077
262 2 0.875035 0.13702 0.537406
137 2 0.856168 0.102223 0.687926
67 3 0.898551 0.120858 0.593199
50 3 0.835453 0.101713 0.744339
371 2 0.911512 0.251641 0.645367
330 2 0.174917 0.386978 0.612151
7 3 0.176844 0.350921 0.655567
302 2 0.12427 0.356243 0.684019
306 2 0.232583 0.34277 0.726497
24 3 0.233227 0.426629 0.506261
94 3 0.0463495 0.357489 0.748055
234 2 0.256098 0.461792 0.548179
55 3 0.360446 0.482272 0.738629
216 2 0.421787 0.475387 0.735041
335 2 0.73118 0.432716 0.535101
39 3 0.696792 0.462496 0.496881
357 2 0.583743 0.494406 0.544295
159 2 0.503898 0.476483 0.561382
118 3 0.54389 0.485803 0.753087
337 2 0.862755 0.261798 0.725178
240 2 0.997865 0.334732 0.727835
36 3 0.763948 0.328354 0.57732
296 2 0.790852 0.310327 0.527838
104 3 0.889901 0.292475 0.680748
135 2 0.807309 0.338509 0.619529
236 2 0.0518686 0.689625 0.541116
351 2 0.0253608 0.613452 0.487381
366 2 0.1144 0.592514 0.608417
79 3 0.154094 0.568213 0.644253
207 2 0.150739 0.607895 0.688898
47 3 0.0281675 0.633444 0.54244
98 3 0.134091 0.720926 0.737353
333 2 0.24572 0.55791 0.612342
174 2 0.138409 0.734832 0.677227
181 2 0.330804 0.529921 0.633896
11 3 0.297075 0.535691 0.589122
125 3 0.411432 0.689354 0.531234
248 2 0.421671 0.700601 0.474402
265 2 0.381979 0.635739 0.53504
149 2 0.434234 0.730043 0.635841
35 3 0.44104 0.744588 0.690511
203 2 0.387205 0.752218 0.710644
310 2 0.540407 0.506766 0.699621
57 3 0.544819 0.511449 0.577149
6 3 0.773791 0.596669 0.495345
188 2 0.795311 0.626551 0.545346
49 3 0.892162 0.697811 0.603586
173 2 0.951118 0.689784 0.608144
359 2 0.858302 0.710806 0.700854
43 3 0.813034 0.515136 0.748383
196 2 0.0695248 0.971232 0.573835
70 3 0.0425286 0.921978 0.588479
372 2 0.165455 0.779349 0.542768
142 2 0.0779298 0.820641 0.57544
124 3 0.110225 0.768142 0.565361
238 2 0.0295001 0.929375 0.642604
242 2 0.262241 0.887658 0.49876
117 3 0.407873 0.997758 0.516126
133 2 0.450797 1.00986 0.552516
93 3 0.561879 0.975372 0.609843
271 2 0.515032 0.959819 0.752881
308 2 0.582738 0.919666 0.604554
146 2 0.695035 0.923018 0.536805
218 2 0.518202 0.767591 0.737817
151 2 0.889158 0.751151 0.577757
150 2 0.737963 0.956403 0.669122
299 2 0.739042 0.866633 0.6975
15 3 0.748411 0.901902 0.649101
83 3 0.887888 0.854439 0.563402
217 2 0.924398 0.897947 0.553739
139 2 0.841429 0.87362 0.591968
123 3 0.147445 0.115974 0.777271
287 2 0.122761 0.0639831 0.782301
111 3 0.0337662 0.194067 0.843217
336 2 0.0823842 0.175777 0.810133
384 2 -0.021122 0.12287 0.916321
279 2 0.0326548 0.251881 0.844085
255 2 0.241626 0.178241 0.81693
143 2 0.0187243 0.0692402 0.977788
183 2 0.0270053 0.0228019 0.846123
198 2 0.412479 0.212173 0.989696
97 3 0.454432 0.172339 0.982703
261 2 0.432334 0.0890648 0.761275
307 2 0.359452 0.0602608 0.92079
48 3 0.316011 0.0293205 0.946697
74 3 0.424566 0.14415 0.778507
346 2 0.340986 0.180758 0.823536
101 3 0.291063 0.203604 0.839497
304 2 0.279593 0.0738193 0.96774
349 2 0.472969 0.162191 0.804334
329 2 0.634875 0.0568546 0.80649
322 2 0.516344 0.201089 0.904445
53 3 0.548852 0.221754 0.857352
170 2 0.583526 0.173713 0.845978
85 3 0.608633 0.0608901 0.860894
205 2 0.647131 0.0329043 0.895606
136 2 0.867182 0.0592502 0.985996
361 2 0.866121 0.0585775 0.765872
68 3 0.976488 0.0679066 0.939522
195 2 0.0385461 0.417283 0.992843
33 3 0.00855045 0.457566 0.958006
167 2 0.196004 0.463314 0.898893
115 3 0.190635 0.40483 0.892159
283 2 0.161583 0.385363 0.938435
324 2 0.235742 0.367879 0.822812
235 2 0.0271435 0.412655 0.765359
327 2 0.286236 0.274515 0.797054
86 3 0.267288 0.334529 0.777614
334 2 0.475495 0.41638 0.882977
28 3 0.422218 0.397862 0.897923
267 2 0.428799 0.342058 0.89009
278 2 0.35278 0.434501 0.984363
184 2 0.347224 0.428327 0.760419
292 2 0.732554 0.287978 0.983696
152 2 0.667195 0.372189 0.816169
380 2 0.607434 0.292295 0.890521
102 3 0.645358 0.337444 0.906778
263 2 0.616115 0.368913 0.953837
10 3 0.677133 0.397001 0.761382
185 2 0.723483 0.432375 0.770066
231 2 0.59586 0.456053 0.760203
130 2 0.889238 0.452628 0.987051
108 3 0.983535 0.497581 0.79588
277 2 0.983743 0.489239 0.855583
345 2 0.0743465 0.648284 0.995857
81 3 0.082078 0.617079 0.946493
166 2 0.043307 0.504845 0.968504
363 2 0.182936 0.579352 0.974638
37 3 0.229501 0.546586 0.967907
331 2 0.0516042 0.705056 0.788778
58 3 0.0104444 0.681299 0.823363
373 2 0.0589332 0.652181 0.903917
269 2 0.185665 0.735838 0.76068
290 2 -0.011296 0.554722 0.78963
354 2 0.257965 0.574755 0.925259
215 2 0.348473 0.565438 0.81909
210 2 0.405823 0.607765 0.877771
63 3 0.347113 0.605315 0.864836
52 3 0.495165 0.618645 0.944404
251 2 0.303321 0.718851 0.811998
224 2 0.493202 0.725892 0.945712
295 2 0.538303 0.60902 0.908983
280 2 0.744857 0.597128 0.989375
23 3 0.731665 0.686908 0.926623
253 2 0.570131 0.675875 0.808159
285 2 0.580151 0.581898 0.792898
14 3 0.599765 0.625896 0.833294
197 2 0.688751 0.671715 0.889051
315 2 0.952628 0.689033 0.816219
75 3 0.8513 0.715162 0.762282
134 2 0.762 0.722917 0.890992
340 2 0.815073 0.573525 0.745971
131 2 0.862902 0.490422 0.765958
16 3 0.0598346 0.984466 0.810717
180 2 0.098672 0.957232 0.847512
367 2 0.158167 0.869679 0.959103
103 3 0.159013 0.898217 0.908062
286 2 0.205611 0.930386 0.9147
73 3 0.479327 0.970899 0.797898
266 2 0.340041 0.919134 0.903497
259 2 0.399654 0.886729 0.839173
107 3 0.362389 0.870568 0.881382
369 2 0.300162 0.808028 0.800352
92 3 0.294891 0.754658 0.769588
182 2 0.453662 0.806328 0.925365
353 2 0.509083 0.995694 0.840443
127 3 0.504809 0.780814 0.933955
129 2 0.671011 0.759403 0.982934
274 2 0.584773 0.799727 0.991373
116 3 0.56766 0.78238 0.771763
177 2 0.54087 0.799357 0.825267
229 2 0.680308 0.802255 0.785414
375 2 0.701176 0.88866 0.956846
27 3 0.733457 0.825694 0.787216
252 2 0.736083 0.862862 0.833608
51 3 0.730547 0.92719 0.919256
378 2 0.99113 0.925812 0.769633
3 3 0.945518 0.896152 0.748463
144 2 0.941939 0.846383 0.776546
176 2 0.816842 0.761085 0.773871
288 2 0.769299 0.95425 0.954706
ITEM: TIMESTEP
33684200
ITEM: NUMBER OF ATOMS
384
ITEM: BOX BOUNDS pp pp pp
0.0000000000000000e+00 1.6590000000000000e+01
0.0000000000000000e+00 1.6590000000000000e+01
0.0000000000000000e+00 1.6590000000000000e+01
ITEM: ATOMS id type xs ys zs
158 2 0.164186 0.166185 0.0361508
273 2 0.101068 0.0751411 0.0331685
13 3 0.0771684 0.0309729 0.0655003
204 2 0.0442365 0.0175267 0.162639
31 3 0.0848761 0.196342 0.0299331
40 3 0.224842 0.151718 0.0297114
364 2 0.108675 -0.0149684 0.0469916
120 3 0.0214043 0.0231199 0.21639
321 2 0.00624255 0.193172 0.0964859
193 2 0.0586517 0.214717 0.977121
284 2 0.24281 0.132333 0.0832532
241 2 0.299293 0.226396 0.0255729
122 3 0.287415 0.0763859 0.169853
344 2 0.345509 0.0852741 0.175718
19 3 0.451597 0.11663 0.136837
319 2 0.278829 0.0227941 0.189369
270 2 0.475149 0.149837 0.0236757
219 2 0.483919 0.153375 0.170041
228 2 0.479379 0.0663776 0.153261
374 2 0.680727 0.012736 0.205012
44 3 0.738244 0.025205 0.217441
42 3 0.529413 0.248634 0.22164
249 2 0.748938 0.0807995 0.200509
91 3 0.968271 0.185415 0.143234
233 2 0.997808 0.145472 0.172007
260 2 0.778985 0.20827 0.0986022
368 2 0.855745 0.15711 0.138303
112 3 0.796759 0.162473 0.13158
317 2 0.790415 0.0890198 0.0352156
154 2 0.963374 1.01279 0.213462
258 2 0.862305 -0.00409648 0.100222
99 3 0.812997 0.0495842 0.000817996
362 2 0.137735 0.356872 0.0853941
227 2 0.117058 0.288241 0.0328771
8 3 0.152161 0.384303 0.199476
109 3 0.133404 0.34533 0.0290274
326 2 0.10618 0.36286 0.227769
153 2 0.201725 0.356887 0.215812
186 2 0.201865 0.475299 0.226053
379 2 0.331599 0.316665 0.0277863
41 3 0.349187 0.258685 0.0359652
289 2 0.403013 0.381232 0.181943
4 3 0.399282 0.32337 0.178451
276 2 0.375649 0.313665 0.126216
141 2 0.479095 0.279623 0.208107
257 2 0.35046 0.469567 0.106842
12 3 0.369689 0.486779 0.161346
318 2 0.278023 0.452864 0.0101276
17 3 0.329127 0.422387 0.0180479
281 2 0.564863 0.276561 0.186607
160 2 0.675951 0.307276 0.101116
76 3 0.630403 0.33776 0.120146
305 2 0.653453 0.377869 0.162392
194 2 0.624735 0.419028 0.0557279
291 2 0.559602 0.49088 0.0419569
32 3 0.609702 0.464138 0.0198675
192 2 0.744284 0.472484 0.209896
21 3 0.75844 0.283937 0.0340921
208 2 0.791046 0.332744 0.0408999
61 3 0.847768 0.429674 0.0330309
355 2 0.845403 0.482111 0.129193
376 2 0.823746 0.475302 0.000793556
256 2 0.991852 0.286486 0.232419
80 3 0.835048 0.497869 0.186426
342 2 0.0793793 0.702389 0.138235
34 3 0.0903144 0.731197 0.0888651
88 3 0.0582396 0.66407 0.259145
343 2 0.0468399 0.75504 0.065557
38 3 0.23798 0.519223 0.245907
168 2 0.319817 0.503145 0.190483
162 2 0.450451 0.550279 0.124359
96 3 0.497281 0.572017 0.0943864
214 2 0.540193 0.591239 0.129845
1 3 0.657909 0.609458 0.149127
222 2 0.698887 0.607569 0.107048
78 3 0.749188 0.564254 0.0195792
298 2 0.700624 0.52759 0.0184243
232 2 0.659729 0.560164 0.182353
171 2 0.494337 0.604767 -0.00542654
301 2 0.848783 0.554488 0.191519
328 2 0.155444 0.823152 0.0994502
22 3 0.177435 0.878954 0.0831977
332 2 0.192435 0.899109 0.135748
347 2 0.232302 0.928784 0.272493
206 2 1.00294 0.840393 0.235681
20 3 0.272101 0.930592 0.227794
297 2 0.317922 0.895967 0.245304
165 2 0.611793 0.780546 0.211859
5 3 0.597388 0.976594 0.203632
69 3 0.588062 0.819804 0.172091
356 2 0.611661 0.803812 0.121651
148 2 0.608397 0.917042 0.1902
18 3 0.647766 0.799081 0.0145469
54 3 0.941977 0.837675 0.126963
157 2 0.917006 0.889944 0.1382
247 2 0.812618 0.981945 0.174428
126 3 0.871045 0.97739 0.157297
325 2 0.901109 0.794906 0.121888
264 2 0.0827086 0.0571143 0.293551
161 2 0.147687 0.0945447 0.346976
275 2 0.0724806 0.0956481 0.483711
46 3 0.0952304 0.0719019 0.346901
381 2 0.221411 0.190402 0.311212
114 3 0.240327 0.138904 0.323218
221 2 0.0408047 0.146004 0.370265
230 2 0.258293 0.111376 0.270981
323 2 0.31042 0.13528 0.442277
87 3 0.332765 0.139161 0.496635
147 2 0.366655 0.0952372 0.513287
377 2 0.541749 0.214084 0.408253
382 2 0.646703 0.109696 0.450751
100 3 0.591969 0.130277 0.466403
71 3 0.730833 0.038761 0.395539
213 2 0.72592 0.0254555 0.335445
211 2 0.714368 -0.0101277 0.424048
309 2 0.513863 0.252974 0.329583
84 3 0.997096 0.188866 0.380978
212 2 0.950083 0.163668 0.401687
339 2 0.815398 0.104882 0.419697
2 3 0.847558 0.150514 0.446411
189 2 0.82232 0.200786 0.430701
316 2 0.196415 0.507292 0.440207
220 2 0.33792 0.262426 0.439168
30 3 0.265413 0.307546 0.276712
358 2 0.304046 0.294007 0.234253
272 2 0.300036 0.336946 0.314813
105 3 0.363444 0.313213 0.418403
320 2 0.422347 0.304747 0.419954
300 2 0.263121 0.402294 0.466463
62 3 0.686594 0.461788 0.222178
106 3 0.529647 0.268359 0.388214
138 2 0.689229 0.421033 0.264815
175 2 0.609316 0.335338 0.376423
25 3 0.65841 0.370286 0.368984
164 2 0.654766 0.412768 0.406081
140 2 0.763553 0.343745 0.395189
26 3 1.01415 0.314987 0.280623
223 2 1.0108 0.269426 0.320351
268 2 0.899898 0.460409 0.324982
121 3 0.923077 0.41888 0.365102
237 2 0.954261 0.384201 0.326973
370 2 0.851811 0.349445 0.405488
45 3 0.805295 0.317538 0.423647
341 2 0.10589 0.644102 0.283793
128 3 0.19479 0.555818 0.405196
360 2 0.230064 0.519309 0.304141
282 2 0.0798934 0.528735 0.382758
311 2 0.0510219 0.714224 0.287773
90 3 0.024799 0.537022 0.393536
303 2 0.214325 0.596826 0.438045
199 2 0.296848 0.712148 0.348764
163 2 0.547859 0.633367 0.478658
60 3 0.595475 0.617752 0.450323
145 2 0.657873 0.671708 0.247717
313 2 0.583398 0.692912 0.301919
77 3 0.637845 0.71002 0.286893
243 2 0.726262 0.710876 0.443385
294 2 0.615634 0.564724 0.462283
254 2 0.725883 0.506414 0.506095
191 2 0.996135 0.485381 0.38434
95 3 0.884976 0.612864 0.334157
178 2 0.944271 0.616125 0.318595
179 2 0.867271 0.668852 0.344561
132 2 0.834951 0.608168 0.43353
56 3 0.146145 0.913777 0.346824
250 2 0.123135 0.971463 0.352747
350 2 0.0970926 0.884692 0.32635
64 3 0.023463 0.832099 0.290475
348 2 0.193614 0.878943 0.425391
72 3 0.230852 0.856058 0.463009
66 3 0.430088 0.831572 0.256698
200 2 0.46699 0.809248 0.216514
82 3 0.325902 0.757541 0.367256
245 2 0.293935 0.788222 0.410131
352 2 0.400993 0.788057 0.287964
202 2 0.435991 0.989092 0.467805
156 2 0.494622 0.876241 0.355317
172 2 0.694215 0.74533 0.364186
338 2 0.576291 0.975768 0.2575
110 3 0.730862 0.760261 0.410516
119 3 0.516527 0.923566 0.382404
226 2 0.558909 0.903815 0.416969
9 3 0.66941 0.899513 0.476261
293 2 0.684198 0.845038 0.446611
244 2 0.975919 0.838666 0.327433
187 2 0.848587 0.780809 0.398786
59 3 0.903129 0.802981 0.40378
383 2 0.89766 0.820737 0.461256
65 3 0.0734094 0.0929247 0.54173
312 2 0.122091 0.124679 0.560874
314 2 0.164634 0.125037 0.720708
89 3 0.202764 0.16556 0.607143
246 2 0.251332 0.151794 0.577851
209 2 0.206832 0.220379 0.624067
201 2 0.606687 0.161082 0.514986
190 2 0.555419 0.00845493 0.555598
29 3 0.635099 0.217295 0.637939
365 2 0.661396 0.103172 0.690155
113 3 0.692581 0.0622046 0.716998
239 2 0.749513 0.0789021 0.729363
155 2 0.630831 0.255033 0.682897
169 2 0.685091 0.236146 0.617003
225 2 0.949082 0.114462 0.582453
262 2 0.862709 0.127832 0.549347
137 2 0.873024 0.105572 0.702527
67 3 0.891422 0.122659 0.598719
50 3 0.852677 0.096299 0.756455
371 2 0.913353 0.238528 0.656072
330 2 0.19023 0.383374 0.616034
7 3 0.177995 0.346638 0.657544
302 2 0.12491 0.367111 0.68014
306 2 0.22757 0.344734 0.731877
24 3 0.228387 0.430201 0.502653
94 3 0.0445189 0.365614 0.748507
234 2 0.26416 0.465095 0.538068
55 3 0.359324 0.499577 0.745466
216 2 0.419594 0.49208 0.755006
335 2 0.718938 0.42567 0.539268
39 3 0.686075 0.464327 0.509561
357 2 0.604469 0.494613 0.569415
159 2 0.517829 0.462638 0.564142
118 3 0.555352 0.491465 0.750929
337 2 0.881994 0.267941 0.739462
240 2 -0.00199936 0.344914 0.722027
36 3 0.74658 0.320776 0.579367
296 2 0.768318 0.308445 0.525824
104 3 0.891167 0.285069 0.682138
135 2 0.789727 0.316098 0.621162
236 2 0.0663973 0.692233 0.523152
351 2 0.0366197 0.614015 0.478734
366 2 0.100611 0.592438 0.601943
79 3 0.145332 0.581153 0.638567
207 2 0.142051 0.628139 0.674971
47 3 0.0407189 0.637527 0.532237
98 3 0.129093 0.712674 0.72192
333 2 0.246598 0.569835 0.611629
174 2 0.120217 0.751049 0.674048
181 2 0.322124 0.542465 0.641858
11 3 0.299352 0.550107 0.591058
125 3 0.412866 0.688273 0.50099
248 2 0.372172 0.721614 0.472554
265 2 0.374986 0.653063 0.531014
149 2 0.435428 0.728062 0.633053
35 3 0.443587 0.738681 0.688334
203 2 0.39136 0.751084 0.713867
310 2 0.543575 0.508558 0.697119
57 3 0.546078 0.507512 0.584044
6 3 0.797291 0.61505 0.475942
188 2 0.825866 0.643805 0.522353
49 3 0.892007 0.689704 0.613568
173 2 0.941473 0.664526 0.592241
359 2 0.860008 0.699372 0.715886
43 3 0.824452 0.510606 0.756064
196 2 0.0570758 0.991832 0.587235
70 3 0.0495166 0.936416 0.60561
372 2 0.157978 0.798167 0.525009
142 2 0.0870352 0.84738 0.574248
124 3 0.104231 0.792838 0.554063
238 2 0.024148 0.941267 0.655287
242 2 0.264844 0.898604 0.486293
117 3 0.407466 1.00211 0.515102
133 2 0.424842 -0.0368876 0.552558
93 3 0.556974 0.975915 0.604451
271 2 0.462204 0.952005 0.754511
308 2 0.579691 0.926958 0.582569
146 2 0.70726 0.902657 0.522527
218 2 0.53352 0.77424 0.744547
151 2 0.889616 0.74458 0.592243
150 2 0.70231 0.965311 0.653909
299 2 0.734044 0.889571 0.696265
15 3 0.733791 0.914849 0.645818
83 3 0.879297 0.852886 0.564868
217 2 0.924732 0.872113 0.596306
139 2 0.834202 0.887124 0.583726
123 3 0.158593 0.117466 0.777469
287 2 0.132939 0.0667139 0.78615
111 3 0.0243626 0.220371 0.853061
336 2 0.0680358 0.190407 0.824594
384 2 0.990348 0.119279 0.906619
279 2 0.0342464 0.270054 0.824788
255 2 0.238683 0.16193 0.84122
143 2 -0.00379067 0.0535266 0.974447
183 2 0.0186045 0.00389918 0.869192
198 2 0.414476 0.209504 0.993537
97 3 0.451247 0.166939 0.973993
261 2 0.420254 0.0918696 0.795909
307 2 0.371138 0.0530028 0.965305
48 3 0.323481 0.0181065 0.958875
74 3 0.417695 0.147953 0.781699
346 2 0.331486 0.176462 0.81137
101 3 0.281701 0.203118 0.83244
304 2 0.287308 0.048444 0.998395
349 2 0.465433 0.172161 0.802627
329 2 0.635883 0.0527852 0.811538
322 2 0.514004 0.199135 0.912211
53 3 0.547688 0.212089 0.862731
170 2 0.570655 0.159302 0.846976
85 3 0.598699 0.0502593 0.860596
205 2 0.62895 0.0143363 0.894695
136 2 0.852659 0.070991 0.96311
361 2 0.888719 0.0543468 0.771534
68 3 0.966353 0.0681204 0.929119
195 2 0.0445136 0.426096 0.978625
33 3 0.000693397 0.463594 0.965698
167 2 0.20276 0.460684 0.918049
115 3 0.190541 0.405806 0.897373
283 2 0.17348 0.376265 0.948074
324 2 0.23071 0.373068 0.834236
235 2 0.0282432 0.42045 0.768056
327 2 0.269619 0.282182 0.801062
86 3 0.259723 0.342915 0.787355
334 2 0.479873 0.404017 0.871763
28 3 0.425108 0.398883 0.891369
267 2 0.406829 0.348872 0.870442
278 2 0.371912 0.435564 0.978279
184 2 0.342327 0.447499 0.767753
292 2 0.719984 0.290878 0.988562
152 2 0.680352 0.363157 0.810071
380 2 0.615635 0.294453 0.894644
102 3 0.653818 0.335923 0.908639
263 2 0.624885 0.374628 0.941517
10 3 0.678485 0.37935 0.752213
185 2 0.720098 0.42049 0.746205
231 2 0.601912 0.454976 0.752698
130 2 0.905396 0.42476 1.00942
108 3 0.984984 0.506907 0.808332
277 2 0.98292 0.491101 0.864242
345 2 0.081497 0.647371 0.993667
81 3 0.0680255 0.605692 0.956726
166 2 0.0235949 0.515419 0.982411
363 2 0.164653 0.576889 0.966645
37 3 0.221865 0.561312 0.970925
331 2 0.0398993 0.695126 0.789919
58 3 -0.00327447 0.687324 0.830863
373 2 0.033446 0.635395 0.919603
269 2 0.179088 0.730905 0.745561
290 2 1.00341 0.561306 0.813306
354 2 0.263625 0.600265 0.95733
215 2 0.35572 0.582447 0.831972
210 2 0.393237 0.630973 0.895913
63 3 0.340945 0.629314 0.868552
52 3 0.478045 0.617568 0.940203
251 2 0.304237 0.704539 0.809902
224 2 0.477714 0.722561 0.942694
295 2 0.522497 0.606983 0.907374
280 2 0.740337 0.601954 0.974387
23 3 0.739706 0.68622 0.914181
253 2 0.603678 0.666737 0.804113
285 2 0.609562 0.575331 0.804124
14 3 0.619072 0.621315 0.838112
197 2 0.695098 0.664244 0.881897
315 2 0.946341 0.704311 0.804905
75 3 0.845828 0.708833 0.769326
134 2 0.782176 0.699279 0.874209
340 2 0.807665 0.567024 0.759412
131 2 0.880445 0.503358 0.776403
16 3 0.0516223 0.973135 0.827595
180 2 0.0938672 0.951278 0.863701
367 2 0.176924 0.88842 0.978648
103 3 0.167559 0.914387 0.925581
286 2 0.218297 0.924258 0.901571
73 3 0.461409 0.983908 0.804464
266 2 0.342456 0.908047 0.930283
259 2 0.396173 0.929188 0.862354
107 3 0.364752 0.880946 0.883605
369 2 0.306034 0.795084 0.82094
92 3 0.297288 0.75417 0.775137
182 2 0.441783 0.808761 0.915222
353 2 0.515962 0.996184 0.82265
127 3 0.493457 0.781515 0.925968
129 2 0.682745 0.757225 0.99126
274 2 0.593413 0.794231 0.995331
116 3 0.574648 0.786481 0.781906
177 2 0.549265 0.788596 0.838002
229 2 0.667478 0.815876 0.789183
375 2 0.714806 0.889179 0.984385
27 3 0.725207 0.82615 0.79498
252 2 0.7262 0.852604 0.848217
51 3 0.739344 0.91762 0.938453
378 2 0.976509 0.920884 0.768317
3 3 0.936909 0.903356 0.728138
144 2 0.89685 0.870989 0.755589
176 2 0.797496 0.743116 0.759268
288 2 0.772428 0.961306 0.962928
ITEM: TIMESTEP
33684300
ITEM: NUMBER OF ATOMS
384
ITEM: BOX BOUNDS pp pp pp
0.0000000000000000e+00 1.6590000000000000e+01
0.0000000000000000e+00 1.6590000000000000e+01
0.0000000000000000e+00 1.6590000000000000e+01
ITEM: ATOMS id type xs ys zs
158 2 0.177251 0.16129 0.0228708
273 2 0.080257 0.081469 0.0393408
13 3 0.0747386 0.0230318 0.0530769
204 2 0.0447363 0.0241521 0.151837
31 3 0.0895489 0.18916 0.0150354
40 3 0.23797 0.159862 0.0311116
364 2 0.1293 1.00148 0.0591678
120 3 0.0114993 0.0406972 0.199797
321 2 0.0158657 0.19687 0.0898166
193 2 0.0645031 0.205969 0.963957
284 2 0.245513 0.1268 0.080601
241 2 0.299856 0.225264 0.0348561
122 3 0.282214 0.0890955 0.167804
344 2 0.340762 0.094566 0.160966
19 3 0.450369 0.107774 0.148972
319 2 0.28015 0.0344801 0.19268
270 2 0.46494 0.126153 0.0333025
219 2 0.469317 0.161065 0.1738
228 2 0.494558 0.0701521 0.165082
374 2 0.695414 0.999197 0.240234
44 3 0.7502 0.0240192 0.247444
42 3 0.516276 0.24516 0.223539
249 2 0.747635 0.0744533 0.217935
91 3 0.981181 0.189566 0.137785
233 2 0.993722 0.138643 0.160229
260 2 0.766486 0.195822 0.087991
368 2 0.851856 0.17729 0.123461
112 3 0.797624 0.15483 0.11582
317 2 0.811523 0.0861096 0.0297554
154 2 0.957397 0.0219695 0.188441
258 2 0.838998 0.987839 0.0857652
99 3 0.817674 0.0404274 0.997602
362 2 0.137655 0.355235 0.0961482
227 2 0.110138 0.293788 0.027443
8 3 0.166225 0.393856 0.190558
109 3 0.120895 0.349034 0.0391118
326 2 0.113397 0.379054 0.208902
153 2 0.201678 0.359541 0.224692
186 2 0.208268 0.485651 0.223833
379 2 0.330965 0.317027 0.0271885
41 3 0.349775 0.26097 0.0367503
289 2 0.396818 0.383653 0.178204
4 3 0.38943 0.325277 0.176411
276 2 0.371948 0.312144 0.119873
141 2 0.469924 0.278415 0.205103
257 2 0.356784 0.481278 0.112582
12 3 0.373423 0.487293 0.169702
318 2 0.299619 0.457155 0.9854
17 3 0.344984 0.431498 0.0143683
281 2 0.557186 0.262769 0.188588
160 2 0.675257 0.325247 0.0967622
76 3 0.632381 0.338567 0.134936
305 2 0.64994 0.383996 0.169816
194 2 0.607861 0.421807 0.0512902
291 2 0.564717 0.511798 0.0357171
32 3 0.611918 0.473411 0.0217364
192 2 0.75193 0.47224 0.204358
21 3 0.761443 0.293318 0.0271588
208 2 0.802995 0.333041 0.0242784
61 3 0.854394 0.427772 0.051187
355 2 0.865721 0.461815 0.147609
376 2 0.814859 0.469302 0.0425376
256 2 0.0205444 0.270802 0.23109
80 3 0.848909 0.493698 0.192928
342 2 0.0905212 0.711044 0.131095
34 3 0.0802532 0.751183 0.0871708
88 3 0.041563 0.674166 0.248777
343 2 0.0329548 0.780178 0.102453
38 3 0.232987 0.532779 0.247791
168 2 0.328944 0.510069 0.199993
162 2 0.467148 0.528219 0.134163
96 3 0.493251 0.568754 0.0981913
214 2 0.531053 0.600558 0.131303
1 3 0.649586 0.606135 0.149868
222 2 0.667238 0.616903 0.0968265
78 3 0.757842 0.559526 0.0145582
298 2 0.718347 0.527595 0.98931
232 2 0.661598 0.547565 0.168037
171 2 0.473347 0.6102 0.999196
301 2 0.84989 0.548045 0.170349
328 2 0.153049 0.832032 0.103824
22 3 0.173748 0.889996 0.0959579
332 2 0.217116 0.893687 0.134094
347 2 0.226361 0.923089 0.285024
206 2 0.97827 0.841336 0.236376
20 3 0.26268 0.929411 0.239381
297 2 0.315718 0.904271 0.251863
165 2 0.593881 0.775415 0.210195
5 3 0.57899 0.97183 0.211155
69 3 0.571086 0.810205 0.164779
356 2 0.600628 0.798137 0.11566
148 2 0.581335 0.919462 0.186402
18 3 0.641855 0.784767 0.0155465
54 3 0.920801 0.819726 0.124266
157 2 0.89575 0.875082 0.127604
247 2 0.820448 0.980275 0.1733
126 3 0.865866 0.97111 0.139009
325 2 0.89729 0.783842 0.0813114
264 2 0.0702685 0.0478821 0.291821
161 2 0.147383 0.0991339 0.306656
275 2 0.0678294 0.0943719 0.475716
46 3 0.105994 0.065646 0.338295
381 2 0.266626 0.198159 0.325794
114 3 0.245106 0.146865 0.321362
221 2 0.0438611 0.148827 0.372037
230 2 0.26708 0.12348 0.267804
323 2 0.286946 0.131399 0.438454
87 3 0.319481 0.138822 0.488005
147 2 0.353292 0.0922704 0.496713
377 2 0.549472 0.225769 0.403268
382 2 0.641563 0.0932108 0.447241
100 3 0.597823 0.128516 0.467553
71 3 0.738154 0.0188684 0.415158
213 2 0.737688 0.0146808 0.354221
211 2 0.732572 0.965739 0.434925
309 2 0.526648 0.251673 0.32147
84 3 0.010305 0.19372 0.393537
212 2 0.957857 0.174991 0.395889
339 2 0.813924 0.0852975 0.437328
2 3 0.846579 0.132544 0.444263
189 2 0.817848 0.182514 0.440209
316 2 0.214618 0.508462 0.436029
220 2 0.372785 0.253582 0.44397
30 3 0.272009 0.307856 0.283281