3
ion step # 1
     8  +2.6272950624635024e-02  +7.7205414296881470e-09  +2.6272950638188290e-02  
     1  -1.0961369969977175e-02  +3.8164624599661525e-08  +9.8485723127180669e-01  
     1  +9.8485723127227043e-01  +3.8164695003014560e-08  -1.0961369969275724e-02  
3
ion step # 2
     8  +3.9513264350814904e-02  +1.2382412381841094e-07  +3.9513264354154837e-02  
     1  -2.5978639972331647e-02  +1.2717898056732854e-07  +9.8655168723349063e-01  
     1  +9.8655168722171083e-01  +1.2717905369535006e-07  -2.5978639970864560e-02  
3
ion step # 3
     8  +5.5155838005188959e-02  -5.5819581020967523e-07  +5.5155838032206465e-02  
     1  -5.5310753437657019e-02  +3.8692453619867609e-07  +1.0002460790843550e+00  
     1  +1.0002460790880090e+00  +3.8692464398868468e-07  -5.5310753437161568e-02  
3
ion step # 4
     8  +5.8071871279783471e-02  -7.0869997454619424e-06  +5.8071870736143449e-02  
     1  -6.4426857729568909e-02  +8.4963943193450993e-07  +1.0080782594802351e+00  
     1  +1.0080782593034363e+00  +8.4963782973494613e-07  -6.4426857725469563e-02  
