3
ion step # 1
     8  +5.3101336929081006e-04  -4.3636330368401357e-08  +5.3112319493669807e-04  
     1  -2.1935409292576238e-04  -4.3656427265878347e-10  +9.9969043947334824e-01  
     1  +9.9969045977645887e-01  +1.0501455076778751e-09  -2.1935663626069537e-04  
3
ion step # 2
     8  +0.0000000000000000e+00  +0.0000000000000000e+00  +0.0000000000000000e+00  
     1  +0.0000000000000000e+00  +0.0000000000000000e+00  +1.0000000000000000e+00  
     1  +1.0000000000000000e+00  +0.0000000000000000e+00  +0.0000000000000000e+00  
3
ion step # 3
     8  +3.9410671327638154e-02  -3.2385946824466585e-06  +3.9418822351103389e-02  
     1  -1.6279989470349917e-02  -3.2400862309969876e-08  +9.7702508283703859e-01  
     1  +9.7702658969028244e-01  +7.7939543225742862e-08  -1.6280178231204003e-02  
3
ion step # 4
     8  +3.3006241670798166e-02  -2.7123069757919371e-06  +3.3013068112502778e-02  
     1  -1.3634410395835832e-02  -2.7135561403013827e-08  +9.8075862088359111e-01  
     1  +9.8075988286570537e-01  +6.5273980695082357e-08  -1.3634568482114449e-02  
3
ion step # 5
     8  +3.3735749063816441e-02  -2.7722546672228536e-06  +3.3742726384246996e-02  
     1  -1.3935759555258834e-02  -2.7735314408964634e-08  +9.8033334591719867e-01  
     1  +9.8033463579177327e-01  +6.6716673018665634e-08  -1.3935921135576856e-02  
3
ion step # 6
     8  +3.3695832487035393e-02  -2.7689744994675292e-06  +3.3702801551809720e-02  
     1  -1.3919270583419569e-02  -2.7702497624459336e-08  +9.8035661575793165e-01  
     1  +9.8035790410630985e-01  +6.6637732983983482e-08  -1.3919431972553657e-02  
3
ion step # 7
     8  +3.3711008773340281e-02  -2.7702216195614172e-06  +3.3717980976915897e-02  
     1  -1.3925539692087846e-02  -2.7714974569062832e-08  +9.8034776856226236e-01  
     1  +9.8034905749090051e-01  +6.6667745992709790e-08  -1.3925701153910081e-02  
3
ion step # 8
     8  +3.3711008773340281e-02  -2.7702216195614172e-06  +3.3717980976915897e-02  
     1  -1.3925539692087846e-02  -2.7714974569062832e-08  +9.8034776856226236e-01  
     1  +9.8034905749090051e-01  +6.6667745992709790e-08  -1.3925701153910081e-02  
3
ion step # 9
     8  +3.3797483092984047e-02  -3.1338646056926904e-06  +3.3803318337410362e-02  
     1  -1.4126187355637499e-02  -3.1247355219336289e-08  +9.8046290283552950e-01  
     1  +9.8046400038468828e-01  +6.3024419127926202e-08  -1.4126380906472991e-02  
3
ion step # 10
     8  +3.3711008773340281e-02  -2.7702216195614172e-06  +3.3717980976915897e-02  
     1  -1.3925539692087846e-02  -2.7714974569062832e-08  +9.8034776856226236e-01  
     1  +9.8034905749090051e-01  +6.6667745992709790e-08  -1.3925701153910081e-02  
3
ion step # 11
     8  +5.5491301313752253e-02  -9.4361004303205280e-05  +5.5211907542085395e-02  
     1  -6.4462679824148841e-02  -9.1741591982065320e-07  +1.0093466454949325e+00  
     1  +1.0092997316616070e+00  -8.5097722955870534e-07  -6.4470923547837011e-02  
3
ion step # 12
     8  +5.4519704073289300e-02  -9.0275230361365128e-05  +5.4253084803654122e-02  
     1  -6.2208268144319706e-02  -8.7772724338805567e-07  +1.0080530343667977e+00  
     1  +1.0080082708108582e+00  -8.1004199765967652e-07  -6.2216151326325020e-02  
3
ion step # 13
     8  +5.4532297374998970e-02  -9.0328187885145870e-05  +5.4265512529390977e-02  
     1  -6.2237488571549794e-02  -8.7824166588326082e-07  +1.0080698014329783e+00  
     1  +1.0080250100063421e+00  -8.1057257731181121e-07  -6.2245376426695379e-02  
3
ion step # 14
     8  +5.4532297374998970e-02  -9.0328187885145870e-05  +5.4265512529390977e-02  
     1  -6.2237488571549794e-02  -8.7824166588326082e-07  +1.0080698014329783e+00  
     1  +1.0080250100063421e+00  -8.1057257731181121e-07  -6.2245376426695379e-02  
3
ion step # 15
     8  +5.4574846693718725e-02  -9.0996512966297187e-05  +5.4312091712790216e-02  
     1  -6.2264717862727414e-02  -8.9458896571793038e-07  +1.0080470952049134e+00  
     1  +1.0080059484904036e+00  -8.3892581566178967e-07  -6.2273064590432539e-02  
3
ion step # 16
     8  +5.4532297374998970e-02  -9.0328187885145870e-05  +5.4265512529390977e-02  
     1  -6.2237488571549794e-02  -8.7824166588326082e-07  +1.0080698014329783e+00  
     1  +1.0080250100063421e+00  -8.1057257731181121e-07  -6.2245376426695379e-02  
3
ion step # 17
     8  +5.5297740973041708e-02  -1.0235106322536041e-04  +5.5103451627072648e-02  
     1  -6.2727331587566743e-02  -1.1723224262862095e-06  +1.0076613263402885e+00  
     1  +1.0076821016876425e+00  -1.3206349104296036e-06  -6.2743474358973803e-02  
3
ion step # 18
     8  +5.6934466395627187e-02  -1.2805922222260431e-04  +5.6895192033891415e-02  
     1  -6.3774748431134246e-02  -1.8011466245361510e-06  +1.0067878961222976e+00  
     1  +1.0069488709646124e+00  -2.4112861221607405e-06  -6.3808542446004632e-02  
