64
ion step # 1
    14  +4.4002437718787818e-01  -2.8817138063861228e-07  -2.2184735694832656e-07  
    14  +1.3754623082700592e+00  +1.3772918093268152e+00  +1.3772918454736778e+00  
    14  +2.7157120649198196e+00  +2.7163339393443344e+00  +7.2010194714108410e-04  
    14  +4.0727659589974010e+00  +4.0727207977227700e+00  +1.3573548186049325e+00  
    14  +2.7157120652214077e+00  +7.2003881841428165e-04  +2.7163339219455120e+00  
    14  +4.0727659548725752e+00  +1.3573547817113307e+00  +4.0727207365440607e+00  
    14  -2.1874124089739434e-03  +2.7144105882288785e+00  +2.7144105705938077e+00  
    14  +1.3586031919773069e+00  +4.0722592222140346e+00  +4.0722591653789886e+00  
    14  +3.9095025296499697e-04  -4.4211713253246649e-08  +5.4299999632054856e+00  
    14  +1.3572979295604772e+00  +1.3577422112846906e+00  +6.7877929358147044e+00  
    14  +2.7149180071121020e+00  +2.7147453273432207e+00  +5.4300235782252937e+00  
    14  +4.0723543988953903e+00  +4.0727500018394478e+00  +6.7872499993303572e+00  
    14  +2.7157120486324726e+00  -7.2010303498517181e-04  +8.1436660851687730e+00  
    14  +4.0724754455561332e+00  +1.3572795925690113e+00  +9.5027204241258314e+00  
    14  -2.1706937489132136e-03  +2.7151232111623531e+00  +8.1448768198203112e+00  
    14  +1.3572979265485126e+00  +4.0722070684075176e+00  +9.5022578004939984e+00  
    14  +3.9094762312949461e-04  +5.4300000266729844e+00  +1.9908666201048758e-08  
    14  +1.3572979319006937e+00  +6.7877929731448159e+00  +1.3577422490722373e+00  
    14  +2.7157120528401015e+00  +8.1436660670604635e+00  -7.2003566806080031e-04  
    14  +4.0724754463638488e+00  +9.5027203631247961e+00  +1.3572796285987636e+00  
    14  +2.7149180101883688e+00  +5.4300236466378822e+00  +2.7147453105771242e+00  
    14  +4.0723543995439853e+00  +6.7872500374649363e+00  +4.0727499399626810e+00  
    14  -2.1706926577645183e-03  +8.1448768034851362e+00  +2.7151231928102750e+00  
    14  +1.3572979283265789e+00  +9.5022577426780419e+00  +4.0722070100750480e+00  
    14  -9.8258163852281834e-04  +5.4300000253853762e+00  +5.4299999623853212e+00  
    14  +1.3586031882903731e+00  +6.7877408219768887e+00  +6.7877407848307572e+00  
    14  +2.7149180076431385e+00  +8.1452546964845709e+00  +5.4299763322685628e+00  
    14  +4.0727659521540849e+00  +9.5026451685366506e+00  +6.7872792093331835e+00  
    14  +2.7149180085701636e+00  +5.4299763999124373e+00  +8.1452547123554737e+00  
    14  +4.0727659573685981e+00  +6.7872792455407724e+00  +9.5026452318027186e+00  
    14  -2.1874227407948136e-03  +8.1455894438741652e+00  +8.1455894570676808e+00  
    14  +1.3754622540193953e+00  +9.4827081179945463e+00  +9.4827081779016940e+00  
    14  +5.4302387099813405e+00  -4.1964885101895402e-08  +2.1973844786645257e-08  
    14  +6.7875208393458726e+00  +1.3578149942716937e+00  +1.3578150263603079e+00  
    14  +8.1455743782614487e+00  +2.7140307682516633e+00  +4.3553054866985575e-04  
    14  +9.5022846605386064e+00  +4.0727274628052816e+00  +1.3571792360533144e+00  
    14  +8.1455743791903874e+00  +4.3546318016265349e-04  +2.7140307465699398e+00  
    14  +9.5022846639188376e+00  +1.3571792024011180e+00  +4.0727274039269732e+00  
    14  +5.4299133967421671e+00  +2.7149865660971755e+00  +2.7149865437710172e+00  
    14  +6.7873267059711209e+00  +4.0721767861051807e+00  +4.0721767218845866e+00  
    14  +5.4305009562705475e+00  -4.1595668013204798e-08  +5.4299999526705029e+00  
    14  +6.7876086297537803e+00  +1.3577334130623653e+00  +6.7877746829041250e+00  
    14  +8.1449822159635925e+00  +2.7152771534170603e+00  +5.4300408585059605e+00  
    14  +9.5030176617330540e+00  +4.0726308399899445e+00  +6.7873691697863627e+00  
    14  +8.1455744168216633e+00  -4.3555610747346587e-04  +8.1459692941041464e+00  
    14  +9.5147382612525480e+00  +1.3523960425282737e+00  +9.5076039422154839e+00  
    14  +5.4299636337352366e+00  +2.7150109503226041e+00  +8.1449890949785626e+00  
    14  +6.7876086282998127e+00  +4.0722253262430286e+00  +9.5022665975235352e+00  
    14  +5.4305009605120818e+00  +5.4300000201200911e+00  +2.8203335338774704e-08  
    14  +6.7876086260393649e+00  +6.7877747146172442e+00  +1.3577334484233001e+00  
    14  +8.1455744118458870e+00  +8.1459692751774782e+00  -4.3548992679770299e-04  
    14  +9.5147382602479009e+00  +9.5076038826578024e+00  +1.3523960781281283e+00  
    14  +8.1449822110425227e+00  +5.4300409231127524e+00  +2.7152771311481709e+00  
    14  +9.5030176616414401e+00  +6.7873692044383116e+00  +4.0726307801974890e+00  
    14  +5.4299636325425684e+00  +8.1449890724005733e+00  +2.7150109311688579e+00  
    14  +6.7876086259958459e+00  +9.5022665323282087e+00  +4.0722252646495836e+00  
    14  +5.4303292106940564e+00  +5.4300000206017387e+00  +5.4299999499076019e+00  
    14  +6.7873267174124781e+00  +6.7878232625298063e+00  +6.7878232265754308e+00  
    14  +8.1449822137135346e+00  +8.1447228695919449e+00  +5.4299590679345231e+00  
    14  +9.5022846623034027e+00  +9.5028207471931019e+00  +6.7872725531829490e+00  
    14  +8.1449822129518470e+00  +5.4299591335570447e+00  +8.1447228892381514e+00  
    14  +9.5022846574371087e+00  +6.7872725880171236e+00  +9.5028208048861806e+00  
    14  +5.4299134089135510e+00  +8.1450134539003436e+00  +8.1450134734444717e+00  
    14  +6.7875208508525793e+00  +9.5021849589653229e+00  +9.5021850192502306e+00  
64
ion step # 2
    14  +1.5191448594465870e-01  -8.3335720358571416e-08  -5.1385774324344403e-07  
    14  +1.4334024580282845e+00  +1.4069852081107754e+00  +1.4069849484720982e+00  
    14  +2.7274820726271813e+00  +2.7302275478811358e+00  +3.5070245337912194e-04  
    14  +4.0764172275610111e+00  +4.0765063204114158e+00  +1.3552468323274554e+00  
    14  +2.7274820688897696e+00  +3.5112962568885358e-04  +2.7302276668585561e+00  
    14  +4.0764172641979846e+00  +1.3552470952943876e+00  +4.0765067405117428e+00  
    14  -1.5963563243391675e-02  +2.7223981974909317e+00  +2.7223983180818663e+00  
    14  +1.3580262364676514e+00  +4.0715825991322721e+00  +4.0715829861399255e+00  
    14  +2.6534181850024468e-03  +1.7397648780872672e-07  +5.4300001652111884e+00  
    14  +1.3545365112871210e+00  +1.3596406724799373e+00  +6.7896839817218959e+00  
    14  +2.7156739951993649e+00  +2.7130215037906553e+00  +5.4304045097765243e+00  
    14  +4.0716541625793861e+00  +4.0737882263234697e+00  +6.7862117241364937e+00  
    14  +2.7274821907947380e+00  -3.5059952428253996e-04  +8.1297722874827087e+00  
    14  +4.0708354877503412e+00  +1.3545214348041101e+00  +9.5054786559973721e+00  
    14  -9.2390266881946896e-03  +2.7162058362152495e+00  +8.1437940121708596e+00  
    14  +1.3545365171688621e+00  +4.0703158553340435e+00  +9.5003593128024875e+00  
    14  +2.6534383143247083e-03  +5.4299997354285079e+00  -2.6461540191968713e-07  
    14  +1.3545364919719993e+00  +6.7896837182215357e+00  +1.3596404045559503e+00  
    14  +2.7274821596338659e+00  +8.1297724135984808e+00  -3.5106348517960812e-04  
    14  +4.0708354850559028e+00  +9.5054790829798268e+00  +1.3545211854154748e+00  
    14  +2.7156739708925994e+00  +5.4304040342271884e+00  +2.7130216235569287e+00  
    14  +4.0716541533834931e+00  +6.7862114612334610e+00  +4.0737886565975430e+00  
    14  -9.2390348424060912e-03  +8.1437941275421153e+00  +2.7162059672621264e+00  
    14  +1.3545365022824483e+00  +9.5003597153757688e+00  +4.0703162554203978e+00  
    14  -8.4453068001715881e-04  +5.4299997383972292e+00  +5.4300001697669611e+00  
    14  +1.3580264255637418e+00  +6.7884170999427687e+00  +6.7884173577006361e+00  
    14  +2.7156740391764589e+00  +8.1469786174114933e+00  +5.4295959336331077e+00  
    14  +4.0764175991293472e+00  +9.5047531869068180e+00  +6.7834932677776099e+00  
    14  +2.7156740336563403e+00  +5.4295954716829726e+00  +8.1469785109702944e+00  
    14  +4.0764175614304472e+00  +6.7834930107166018e+00  +9.5047527497511464e+00  
    14  -1.5963386962072605e-02  +8.1376017691171700e+00  +8.1376016847861710e+00  
    14  +1.4334009684926861e+00  +9.4530147858435196e+00  +9.4530143739821284e+00  
    14  +5.4322629063241079e+00  +1.3276690131398566e-07  -3.0430579790707398e-07  
    14  +6.7875756078844862e+00  +1.3591379637108820e+00  +1.3591377421519979e+00  
    14  +8.1539517937329631e+00  +2.7054319902585608e+00  -1.8103949946148572e-03  
    14  +9.4997653810826677e+00  +4.0742653069296670e+00  +1.3542957255846642e+00  
    14  +8.1539517846535485e+00  -1.8099279537934767e-03  +2.7054321452763377e+00  
    14  +9.4997653542513270e+00  +1.3542959557987784e+00  +4.0742657122607664e+00  
    14  +5.4284737377257386e+00  +2.7146671013776316e+00  +2.7146672646248118e+00  
    14  +6.7867378605649957e+00  +4.0709147841257209e+00  +4.0709152325681703e+00  
    14  +5.4340616067054697e+00  +1.8213851371282978e-07  +5.4300001805332361e+00  
    14  +6.7897778829359892e+00  +1.3577272685875084e+00  +6.7901459349615445e+00  
    14  +8.1453086155201131e+00  +2.7170677728887194e+00  +5.4305719552803202e+00  
    14  +9.5036004623663874e+00  +4.0738820995659886e+00  +6.7861177744364838e+00  
    14  +8.1539517972585980e+00  +1.8104799370535429e-03  +8.1545680358717458e+00  
    14  +9.5760289497459290e+00  +1.3166027427102573e+00  +9.5433970154567245e+00  
    14  +5.4285569542507082e+00  +2.7157239849291561e+00  +8.1442760409611523e+00  
    14  +6.7897781639896273e+00  +4.0698536742954152e+00  +9.5022726197502383e+00  
    14  +5.4340615731313564e+00  +5.4299997129336024e+00  -3.0040120386931879e-07  
    14  +6.7897779117107895e+00  +6.7901457208688685e+00  +1.3577270237661645e+00  
    14  +8.1539518339611217e+00  +8.1545681669903587e+00  +1.8100295481243661e-03  
    14  +9.5760289644132097e+00  +9.5433974329992495e+00  +1.3166024811282293e+00  
    14  +8.1453086570674653e+00  +5.4305715160902581e+00  +2.7170679291201094e+00  
    14  +9.5036004613548108e+00  +6.7861175275644738e+00  +4.0738825094608098e+00  
    14  +5.4285569621693757e+00  +8.1442762000733335e+00  +2.7157241155724092e+00  
    14  +6.7897781816536220e+00  +9.5022730713813850e+00  +4.0698540975789186e+00  
    14  +5.4321762250224674e+00  +5.4299997442550749e+00  +5.4300002315378055e+00  
    14  +6.7867377661647730e+00  +6.7890848209180064e+00  +6.7890850722177012e+00  
    14  +8.1453085902549205e+00  +8.1429323678381706e+00  +5.4294283632826117e+00  
    14  +9.4997652384354119e+00  +9.5057044449961445e+00  +6.7857346578499662e+00  
    14  +8.1453085921050477e+00  +5.4294279103159342e+00  +8.1429322269964963e+00  
    14  +9.4997652777626929e+00  +6.7857344228074306e+00  +9.5057040453126724e+00  
    14  +5.4284736607123083e+00  +8.1453329671381773e+00  +8.1453328272401233e+00  
    14  +6.7875756026904801e+00  +9.5008623781270920e+00  +9.5008619582635241e+00  
64
ion step # 3
    14  +1.3463655220280513e-01  +2.9930691708182437e-07  -4.2832331534987780e-09  
    14  +1.4158960359189898e+00  +1.4032673538149325e+00  +1.4032672056148376e+00  
    14  +2.7317561455885864e+00  +2.7330809677273651e+00  -4.6464029298259072e-03  
    14  +4.0799778901721471e+00  +4.0803357576110608e+00  +1.3567075172684255e+00  
    14  +2.7317561492155593e+00  -4.6460960067903683e-03  +2.7330810449305001e+00  
    14  +4.0799778904333017e+00  +1.3567076562891949e+00  +4.0803360289644157e+00  
    14  -9.5039494847526749e-03  +2.7208556153079031e+00  +2.7208556910777255e+00  
    14  +1.3562294828914769e+00  +4.0723960132090644e+00  +4.0723962754599041e+00  
    14  +2.6123660425246601e-03  +1.1249425629659959e-07  +5.4300001251792755e+00  
    14  +1.3543866899122945e+00  +1.3606088452548146e+00  +6.7890116812954062e+00  
    14  +2.7149406832275145e+00  +2.7130653312861295e+00  +5.4303340712140837e+00  
    14  +4.0718959115937672e+00  +4.0740110622157557e+00  +6.7859889026234415e+00  
    14  +2.7317563852854083e+00  +4.6466519365206292e-03  +8.1269188871537494e+00  
    14  +4.0725639883419396e+00  +1.3555586122414351e+00  +9.5044415226552239e+00  
    14  -6.5519574412468340e-03  +2.7124112407982550e+00  +8.1475884977137625e+00  
    14  +1.3543866001923679e+00  +4.0709881969984769e+00  +9.4993911305641738e+00  
    14  +2.6123730424998130e-03  +5.4299998235023370e+00  -1.8070834196226077e-07  
    14  +1.3543866854970277e+00  +6.7890115239036106e+00  +1.3606086957261012e+00  
    14  +2.7317563781106111e+00  +8.1269189622450604e+00  +4.6463453537110792e-03  
    14  +4.0725639806405143e+00  +9.5044417780713779e+00  +1.3555584532127736e+00  
    14  +2.7149406768671001e+00  +5.4303337747763925e+00  +2.7130653960830902e+00  
    14  +4.0718959185000250e+00  +6.7859887326017150e+00  +4.0740113268199707e+00  
    14  -6.5519617067406073e-03  +8.1475885656453588e+00  +2.7124113110676813e+00  
    14  +1.3543865967976025e+00  +9.4993913764528433e+00  +4.0709884630633004e+00  
    14  +4.2381919969465822e-03  +5.4299998321595782e+00  +5.4300001205465396e+00  
    14  +1.3562295958602832e+00  +6.7876037328703100e+00  +6.7876038936675354e+00  
    14  +2.7149406930686100e+00  +8.1469348336943614e+00  +5.4296661464674907e+00  
    14  +4.0799784092320586e+00  +9.5032925355452402e+00  +6.7796637839136755e+00  
    14  +2.7149406868309218e+00  +5.4296658345889099e+00  +8.1469347551203253e+00  
    14  +4.0799783895781232e+00  +6.7796636441906699e+00  +9.5032922630545738e+00  
    14  -9.5046553949663173e-03  +8.1391438536830609e+00  +8.1391437772933770e+00  
    14  +1.4158947356812708e+00  +9.4567327391703753e+00  +9.4567324723786221e+00  
    14  +5.4330995478275659e+00  +1.0184986865112571e-07  -1.8955440171171467e-07  
    14  +6.7889779299986346e+00  +1.3589207079265699e+00  +1.3589205683535235e+00  
    14  +8.1606427443417981e+00  +2.6993430867993267e+00  -4.9823332264820408e-03  
    14  +9.4980815605460212e+00  +4.0753569172162711e+00  +1.3535230754970917e+00  
    14  +8.1606427455415567e+00  -4.9820285622294040e-03  +2.6993431672832799e+00  
    14  +9.4980815521373270e+00  +1.3535232291544390e+00  +4.0753571789045431e+00  
    14  +5.4276960239481635e+00  +2.7144817606695000e+00  +2.7144818365242842e+00  
    14  +6.7868074250026016e+00  +4.0711441091622120e+00  +4.0711443779105796e+00  
    14  +5.4386261013483184e+00  +1.7074545767355012e-07  +5.4300000360377023e+00  
    14  +6.7925802174876342e+00  +1.3587926670174062e+00  +6.7930710188588028e+00  
    14  +8.1447941450751387e+00  +2.7159990220682677e+00  +5.4306295674601799e+00  
    14  +9.5006023992557651e+00  +4.0744557636053438e+00  +6.7855441683620823e+00  
    14  +8.1606424259096819e+00  +4.9827163974163523e-03  +8.1606567605081359e+00  
    14  +9.5603080783149839e+00  +1.3240769440494558e+00  +9.5359231579338690e+00  
    14  +5.4274664966307329e+00  +2.7148214541955511e+00  +8.1451785755504584e+00  
    14  +6.7925806705312617e+00  +4.0669284824645748e+00  +9.5012073410024609e+00  
    14  +5.4386260886727742e+00  +5.4299997345871196e+00  -1.4063148855607190e-07  
    14  +6.7925802237539870e+00  +6.7930708685398473e+00  +1.3587925164358863e+00  
    14  +8.1606424393027606e+00  +8.1606568402368893e+00  +4.9823964450101043e-03  
    14  +9.5603080870767290e+00  +9.5359234194660019e+00  +1.3240768121643343e+00  
    14  +8.1447941505275772e+00  +5.4306292654592161e+00  +2.7159991145384179e+00  
    14  +9.5006024006318430e+00  +6.7855440331634043e+00  +4.0744560340958245e+00  
    14  +5.4274665032434335e+00  +8.1451786672175146e+00  +2.7148215424941395e+00  
    14  +6.7925806740923109e+00  +9.5012076207483496e+00  +4.0669287575127608e+00  
    14  +5.4321694082228662e+00  +5.4299997962309927e+00  +5.4300001083816953e+00  
    14  +6.7868074352324523e+00  +6.7888556971049310e+00  +6.7888558458063688e+00  
    14  +8.1447941729465345e+00  +8.1440011345391650e+00  +5.4293707330854328e+00  
    14  +9.4980814319441613e+00  +9.5064770251088468e+00  +6.7846431097497453e+00  
    14  +8.1447941836449615e+00  +5.4293704435830765e+00  +8.1440010594756949e+00  
    14  +9.4980814391495176e+00  +6.7846429431145232e+00  +9.5064767756716364e+00  
    14  +5.4276961300892932e+00  +8.1455182561045572e+00  +8.1455181818624460e+00  
    14  +6.7889777830021876e+00  +9.5010795324421782e+00  +9.5010792771365473e+00  
64
ion step # 4
    14  +9.4595089020154094e-02  +4.1645967049326279e-07  +3.7755277029948499e-07  
    14  +1.3982987836114145e+00  +1.3897953245481358e+00  +1.3897953190433252e+00  
    14  +2.7336241112122419e+00  +2.7345569475713907e+00  -5.8738655340807308e-03  
    14  +4.0848153664918057e+00  +4.0857035517334115e+00  +1.3575224849129111e+00  
    14  +2.7336241127122385e+00  -5.8738328873285230e-03  +2.7345569616599796e+00  
    14  +4.0848153493896140e+00  +1.3575224886131230e+00  +4.0857035772562176e+00  
    14  -7.5576756207096562e-03  +2.7216990580534146e+00  +2.7216990701827841e+00  
    14  +1.3573745550191587e+00  +4.0723609644390439e+00  +4.0723609985082483e+00  
    14  +1.7280360548633520e-03  -3.8976055558821132e-08  +5.4300000781526494e+00  
    14  +1.3552068501073695e+00  +1.3613271769188986e+00  +6.7874401737068570e+00  
    14  +2.7135431206141987e+00  +2.7149719612551038e+00  +5.4301737650766579e+00  
    14  +4.0715656660265411e+00  +4.0738826741046497e+00  +6.7861173131908039e+00  
    14  +2.7336247966267972e+00  +5.8742735239880207e-03  +8.1254429082765576e+00  
    14  +4.0766633723753811e+00  +1.3565197220333889e+00  +9.5034805564294729e+00  
    14  -5.5431880651562963e-03  +2.7100516794874143e+00  +8.1499479948392324e+00  
    14  +1.3552065709503223e+00  +4.0725596606671894e+00  +9.4986727989688688e+00  
    14  +1.7280334381455595e-03  +5.4300000281672700e+00  -6.5822159368563914e-08  
    14  +1.3552068596215974e+00  +6.7874401716562005e+00  +1.3613271732870464e+00  
    14  +2.7336247988345872e+00  +8.1254429161861346e+00  +5.8742448613930505e-03  
    14  +4.0766633626366726e+00  +9.5034805650434642e+00  +1.3565197162570255e+00  
    14  +2.7135431333180100e+00  +5.4301737468278635e+00  +2.7149719695459904e+00  
    14  +4.0715656774882687e+00  +6.7861173040795340e+00  +4.0738826937177759e+00  
    14  -5.5431747580926369e-03  +8.1499480053032407e+00  +2.7100516847335849e+00  
    14  +1.3552065802710787e+00  +9.4986728204246500e+00  +4.0725596954441246e+00  
    14  +6.1549914269209841e-03  +5.4300000456264632e+00  +5.4300000882816386e+00  
    14  +1.3573744576791364e+00  +6.7876388165080002e+00  +6.7876388252541551e+00  
    14  +2.7135431210596344e+00  +8.1450283016837446e+00  +5.4298260917920693e+00  
    14  +4.0848160271844627e+00  +9.5024775803822834e+00  +6.7742961131311485e+00  
    14  +2.7135431108968606e+00  +5.4298260595538101e+00  +8.1450282926767557e+00  
    14  +4.0848160292064346e+00  +6.7742961127086083e+00  +9.5024775570963325e+00  
    14  -7.5590778408455754e-03  +8.1383002017528678e+00  +8.1383001798337560e+00  
    14  +1.3982971364198555e+00  +9.4702050488126197e+00  +9.4702050158255577e+00  
    14  +5.4344911280686494e+00  +9.5217969168938133e-08  +6.4672394710016552e-08  
    14  +6.7929503508223323e+00  +1.3577481231945472e+00  +1.3577481020767497e+00  
    14  +8.1645126295618180e+00  +2.6955515312198957e+00  -7.2820536173991224e-03  
    14  +9.4990055772847128e+00  +4.0740727083139836e+00  +1.3529929823250662e+00  
    14  +8.1645126404527790e+00  -7.2820258275943326e-03  +2.6955515333463080e+00  
    14  +9.4990055934418542e+00  +1.3529930001630042e+00  +4.0740727415011975e+00  
    14  +5.4285049737831992e+00  +2.7147921080174369e+00  +2.7147921052827861e+00  
    14  +6.7867106647934863e+00  +4.0709074286990274e+00  +4.0709074443114437e+00  
    14  +5.4502934275536656e+00  +1.0003065688805551e-07  +5.4299996444479985e+00  
    14  +6.7980496490304709e+00  +1.3584527997204527e+00  +6.7999071545837397e+00  
    14  +8.1427996414225632e+00  +2.7150022000045837e+00  +5.4303539485740755e+00  
    14  +9.5014403523623194e+00  +4.0739568019486381e+00  +6.7860432387534315e+00  
    14  +8.1645119821240399e+00  +7.2829725621274292e-03  +8.1644481503875586e+00  
    14  +9.5434648987292263e+00  +1.3336279912287821e+00  +9.5263726248684577e+00  
    14  +5.4272174792795509e+00  +2.7146179553765823e+00  +8.1453820646738126e+00  
    14  +6.7980502540615886e+00  +4.0600921987370135e+00  +9.5015475368452016e+00  
    14  +5.4502934332044264e+00  +5.4299996143939602e+00  +7.1080393176319551e-08  
    14  +6.7980496345188417e+00  +6.7999071250950935e+00  +1.3584527873783396e+00  
    14  +8.1645119787834926e+00  +8.1644481521703209e+00  +7.2829332613673558e-03  
    14  +9.5434649001487806e+00  +9.5263726447809951e+00  +1.3336280003147432e+00  
    14  +8.1427996270075091e+00  +5.4303539128827589e+00  +2.7150022027739729e+00  
    14  +9.5014403489240298e+00  +6.7860432393675669e+00  +4.0739568320669903e+00  
    14  +5.4272174805529207e+00  +8.1453820621293893e+00  +2.7146179711784035e+00  
    14  +6.7980502460680965e+00  +9.5015475598371335e+00  +4.0600922280180463e+00  
    14  +5.4323815104350341e+00  +5.4299999483067083e+00  +5.4299999748913388e+00  
    14  +6.7867108484105438e+00  +6.7890925438161762e+00  +6.7890925513104978e+00  
    14  +8.1427997119221196e+00  +8.1449980626509717e+00  +5.4296460243983251e+00  
    14  +9.4990051930136374e+00  +9.5070073124997716e+00  +6.7859273272923293e+00  
    14  +8.1427997191355175e+00  +5.4296459945998912e+00  +8.1449980568847984e+00  
    14  +9.4990051898458763e+00  +6.7859273016286927e+00  +9.5070072844140938e+00  
    14  +5.4285052224398642e+00  +8.1452077652071413e+00  +8.1452077636317757e+00  
    14  +6.7929499712785812e+00  +9.5022520126697163e+00  +9.5022519869174022e+00  
64
ion step # 5
    14  +5.7186803866128288e-02  -1.0151336109586668e-07  +2.9485153922078595e-08  
    14  +1.3819721648196404e+00  +1.3739133746030743e+00  +1.3739134575805627e+00  
    14  +2.7310063442801500e+00  +2.7296146504425520e+00  -1.3769722614457561e-03  
    14  +4.0876988127650140e+00  +4.0884640942397903e+00  +1.3572080710602610e+00  
    14  +2.7310063541312064e+00  -1.3770903480847293e-03  +2.7296146142489137e+00  
    14  +4.0876988154191576e+00  +1.3572079820712306e+00  +4.0884639648538510e+00  
    14  -1.7732519904321863e-03  +2.7173966627485542e+00  +2.7173965975470016e+00  
    14  +1.3575476404399873e+00  +4.0726272286045120e+00  +4.0726270864045597e+00  
    14  +2.2986274844987858e-03  -2.3440871870578634e-07  +5.4299999261070662e+00  
    14  +1.3559816360638979e+00  +1.3602358434149171e+00  +6.7871608859554113e+00  
    14  +2.7161876236084836e+00  +2.7155167807047054e+00  +5.4304195624634160e+00  
    14  +4.0711195241357281e+00  +4.0742719460857009e+00  +6.7857281944962820e+00  
    14  +2.7310068909902188e+00  +1.3772114893725400e-03  +8.1303857464352802e+00  
    14  +4.0766945175375735e+00  +1.3571628657990407e+00  +9.5028377307798699e+00  
    14  -1.2318955122156939e-03  +2.7127013805133973e+00  +8.1472983173368618e+00  
    14  +1.3559810001479025e+00  +4.0728389268229979e+00  +9.4997640620247594e+00  
    14  +2.2986082578501325e-03  +5.4300000537388318e+00  -8.4822435847989095e-08  
    14  +1.3559816316181554e+00  +6.7871609393830532e+00  +1.3602359307627017e+00  
    14  +2.7310068956834037e+00  +8.1303857132592281e+00  +1.3773312564107510e-03  
    14  +4.0766945378838173e+00  +9.5028376007168038e+00  +1.3571629464837311e+00  
    14  +2.7161876216454335e+00  +5.4304197044344527e+00  +2.7155167467760406e+00  
    14  +4.0711195288875288e+00  +6.7857282678332158e+00  +4.0742718231583606e+00  
    14  -1.2318964420785132e-03  +8.1472982667474447e+00  +2.7127013534466640e+00  
    14  +1.3559810125534810e+00  +9.4997639292791654e+00  +4.0728388283226700e+00  
    14  +7.1879286749930707e-03  +5.4300000343141299e+00  +5.4299998801329856e+00  
    14  +1.3575476806041176e+00  +6.7873730331927717e+00  +6.7873729500383337e+00  
    14  +2.7161875765692516e+00  +8.1444836951860999e+00  +5.4295800998716492e+00  
    14  +4.0876995422975222e+00  +9.5027919568106309e+00  +6.7715356740506110e+00  
    14  +2.7161875738636629e+00  +5.4295802413864198e+00  +8.1444837300055113e+00  
    14  +4.0876995504093738e+00  +6.7715357533023903e+00  +9.5027920957519942e+00  
    14  -1.7747437001725712e-03  +8.1426031229367926e+00  +8.1426031541421988e+00  
    14  +1.3819708012078966e+00  +9.4860865739406037e+00  +9.4860867027195201e+00  
    14  +5.4385965790082338e+00  +2.6031105023716777e-07  +4.1627824257332309e-07  
    14  +6.7942784310697304e+00  +1.3569098024888375e+00  +1.3569098899028826e+00  
    14  +8.1615459488523054e+00  +2.7003170110336949e+00  -1.2827243440262854e-03  
    14  +9.4991755591303484e+00  +4.0731528511130195e+00  +1.3540785529300163e+00  
    14  +8.1615459332851898e+00  -1.2828464528296323e-03  +2.7003169623662644e+00  
    14  +9.4991755598631649e+00  +1.3540784785638593e+00  +4.0731527325088948e+00  
    14  +5.4317199441826762e+00  +2.7135498653098651e+00  +2.7135498300324312e+00  
    14  +6.7854115162277662e+00  +4.0714579603896199e+00  +4.0714578365438845e+00  
    14  +5.4626516303840873e+00  -4.1903075683903717e-07  +5.4299990171873409e+00  
    14  +6.8017109496383803e+00  +1.3590162507826931e+00  +6.8035529024874162e+00  
    14  +8.1454000975222662e+00  +2.7136666248890293e+00  +5.4311419980134206e+00  
    14  +9.5021640547694197e+00  +4.0735047262431321e+00  +6.7864953037414146e+00  
    14  +8.1615452563807498e+00  +1.2844116371135898e-03  +8.1596833178502841e+00  
    14  +9.5324086144178217e+00  +1.3431751272552126e+00  +9.5168252966240825e+00  
    14  +5.4299795509280049e+00  +2.7150918888411550e+00  +8.1449083850640047e+00  
    14  +6.8017111964853454e+00  +4.0564463453240220e+00  +9.5009842828690818e+00  
    14  +5.4626516499407574e+00  +5.4299991616962027e+00  -2.9348331832902076e-07  
    14  +6.8017109507754006e+00  +6.8035529830682275e+00  +1.3590163133154234e+00  
    14  +8.1615452351699496e+00  +8.1596832576568676e+00  +1.2845456977459240e-03  
    14  +9.5324086120428611e+00  +9.5168251462010307e+00  +1.3431751956551603e+00  
    14  +8.1454000965206763e+00  +5.4311421398927893e+00  +2.7136665669461433e+00  
    14  +9.5021640734464068e+00  +6.7864953743196432e+00  +4.0735045954161810e+00  
    14  +5.4299795595498388e+00  +8.1449083391471522e+00  +2.7150918360956586e+00  
    14  +6.8017111867821383e+00  +9.5009841505834771e+00  +4.0564462041502729e+00  
    14  +5.4317470514368731e+00  +5.4300000793241692e+00  +5.4299999344574328e+00  
    14  +6.7854119975707734e+00  +6.7885419507292299e+00  +6.7885418812876219e+00  
    14  +8.1454001666378169e+00  +8.1463340722878126e+00  +5.4288574648498322e+00  
    14  +9.4991747862065861e+00  +9.5059220628764951e+00  +6.7868472227884338e+00  
    14  +8.1454001663099938e+00  +5.4288576015595940e+00  +8.1463341158695357e+00  
    14  +9.4991747775214090e+00  +6.7868472864968208e+00  +9.5059221997044485e+00  
    14  +5.4317201598239944e+00  +8.1464500414175429e+00  +8.1464500800501742e+00  
    14  +6.7942777741919356e+00  +9.5030902813271751e+00  +9.5030904319209775e+00  
64
ion step # 6
    14  +2.9817644534003700e-02  -5.1427742472547646e-07  -3.1223340690921078e-07  
    14  +1.3745881220714724e+00  +1.3616114376520554e+00  +1.3616115388390331e+00  
    14  +2.7254907049000971e+00  +2.7249222825076780e+00  +2.5722899160278844e-03  
    14  +4.0908004698570624e+00  +4.0844571322145029e+00  +1.3547658724724141e+00  
    14  +2.7254906986824325e+00  +2.5721066228382924e-03  +2.7249222624657805e+00  
    14  +4.0908004604491248e+00  +1.3547657934636623e+00  +4.0844569923773566e+00  
    14  -9.6252081530486596e-04  +2.7142526076415607e+00  +2.7142525946564198e+00  
    14  +1.3622150900322096e+00  +4.0698233241764701e+00  +4.0698231934012066e+00  
    14  -3.9333069574196578e-04  -7.3805130506650203e-08  +5.4300000489853852e+00  
    14  +1.3620175791331561e+00  +1.3573425434886017e+00  +6.7878389935570711e+00  
    14  +2.7165272080050498e+00  +2.7142442228170753e+00  +5.4308067961228188e+00  
    14  +4.0749350247142475e+00  +4.0732207713132729e+00  +6.7867796420787618e+00  
    14  +2.7254912861882508e+00  -2.5720490918799384e-03  +8.1350781920282760e+00  
    14  +4.0777647303903661e+00  +1.3563508677679912e+00  +9.5036498886658105e+00  
    14  +1.9167349834870876e-03  +2.7165241585112425e+00  +8.1434752955386340e+00  
    14  +1.3620169218805940e+00  +4.0721608317201392e+00  +9.5026571848192507e+00  
    14  -3.9333225133964266e-04  +5.4300002104614205e+00  +8.8782459067241305e-08  
    14  +1.3620175908018213e+00  +6.7878391056291081e+00  +1.3573426171748662e+00  
    14  +2.7254912820754487e+00  +8.1350781440582107e+00  -2.5718453105690918e-03  
    14  +4.0777647006141935e+00  +9.5036497337559833e+00  +1.3563509636465203e+00  
    14  +2.7165272195368617e+00  +5.4308069757316728e+00  +2.7142441875011092e+00  
    14  +4.0749350260194870e+00  +6.7867797454232965e+00  +4.0732206068139236e+00  
    14  +1.9167540847506641e-03  +8.1434752733666258e+00  +2.7165241240194087e+00  
    14  +1.3620169393782633e+00  +9.5026570552737599e+00  +4.0721606589784507e+00  
    14  +2.5542464832870792e-03  +5.4300004596821010e+00  +5.4300002913712584e+00  
    14  +1.3622146079495898e+00  +6.7901769635079834e+00  +6.7901768665937965e+00  
    14  +2.7165269224952846e+00  +8.1457562743727578e+00  +5.4291931826979560e+00  
    14  +4.0908007953339673e+00  +9.5052344047500039e+00  +6.7755430033354722e+00  
    14  +2.7165269199935729e+00  +5.4291933407390838e+00  +8.1457563117226623e+00  
    14  +4.0908008025619891e+00  +6.7755430961170262e+00  +9.5052345316218219e+00  
    14  -9.6384491303303334e-04  +8.1457472720755906e+00  +8.1457473255164636e+00  
    14  +1.3745878944646557e+00  +9.4983877294265326e+00  +9.4983878672344755e+00  
    14  +5.4358894889597416e+00  +3.0878591612091296e-07  +4.7480723268936101e-07  
    14  +6.7933891452858841e+00  +1.3575547037964633e+00  +1.3575547740332377e+00  
    14  +8.1579827228087805e+00  +2.7036477169144484e+00  +1.6398731788471902e-04  
    14  +9.5069184361428682e+00  +4.0734751439673529e+00  +1.3579897745178915e+00  