64
ion step # 1
    14  +4.9879997021653466e-01  +2.1024610250565143e-09  +3.0459289470176174e-09  
    14  +1.3578595737160797e+00  +1.3578961985589513e+00  +1.3578961994802448e+00  
    14  +2.7150142497666505e+00  +2.7150266979294702e+00  +1.4418928584432686e-05  
    14  +4.0725051255038194e+00  +4.0725042050530096e+00  +1.3574972979514450e+00  
    14  +2.7150142488450988e+00  +1.4418854099409434e-05  +2.7150266996488805e+00  
    14  +4.0725051267770311e+00  +1.3574972969342534e+00  +4.0725042028729739e+00  
    14  -4.3745829263739588e-05  +2.7149881993858376e+00  +2.7149881998936061e+00  
    14  +1.3575222486654774e+00  +4.0724949382173952e+00  +4.0724949354275486e+00  
    14  +7.8004405757271983e-06  -7.5132304802944261e-11  +5.4299999996424644e+00  
    14  +1.3574961805968628e+00  +1.3575050524066972e+00  +6.7875060469450297e+00  
    14  +2.7149983524076462e+00  +2.7149948868261742e+00  +5.4300004711845400e+00  
    14  +4.0724969292290307e+00  +4.0725047503457139e+00  +6.7874952497597922e+00  
    14  +2.7150142483713782e+00  -1.4414243736758942e-05  +8.1449732997004016e+00  
    14  +4.0724993068039206e+00  +1.3574957961328689e+00  +9.5025042075042485e+00  
    14  -4.3419224498927354e-05  +2.7150024717028547e+00  +8.1449975238838306e+00  
    14  +1.3574961837050694e+00  +4.0724939521272052e+00  +9.5024949487251664e+00  
    14  +7.8028119805874350e-06  +5.4300000030327338e+00  +3.8564296098534834e-09  
    14  +1.3574961809875812e+00  +6.7875060477432365e+00  +1.3575050557101316e+00  
    14  +2.7150142487609843e+00  +8.1449732961570227e+00  -1.4414231823335525e-05  
    14  +4.0724993083598813e+00  +9.5025042051699646e+00  +1.3574957977241446e+00  
    14  +2.7149983518287550e+00  +5.4300004756005729e+00  +2.7149948876569683e+00  
    14  +4.0724969299944913e+00  +6.7874952506365087e+00  +4.0725047473042979e+00  
    14  -4.3419455889553436e-05  +8.1449975237442533e+00  +2.7150024742466865e+00  
    14  +1.3574961799741760e+00  +9.5024949460937158e+00  +4.0724939502584299e+00  
    14  -1.9674548003783677e-05  +5.4300000015854142e+00  +5.4299999977487658e+00  
    14  +1.3575222482311908e+00  +6.7875050630811096e+00  +6.7875050614061943e+00  
    14  +2.7149983523388070e+00  +8.1450051100187117e+00  +5.4299995244573820e+00  
    14  +4.0725051270499701e+00  +9.5025027022311139e+00  +6.7874957932720195e+00  
    14  +2.7149983540423444e+00  +5.4299995288705087e+00  +8.1450051125841032e+00  
    14  +4.0725051263748382e+00  +6.7874957935182003e+00  +9.5025027035946614e+00  
    14  -4.3748132347349106e-05  +8.1450117994409972e+00  +8.1450117984099411e+00  
    14  +1.3578595712746935e+00  +9.5021038013692287e+00  +9.5021038017075075e+00  
    14  +5.4300045321456798e+00  +2.5872523491593430e-09  +2.6765621702078540e-09  
    14  +6.7875006164545750e+00  +1.3575065110749174e+00  +1.3575065138322167e+00  
    14  +8.1450114734291095e+00  +2.7149806108779875e+00  +8.7246520057838171e-06  
    14  +9.5024955060314422e+00  +4.0725043250300192e+00  +1.3574937977381161e+00  
    14  +8.1450114735341117e+00  +8.7216561561090001e-06  +2.7149806133621208e+00  
    14  +9.5024955052297475e+00  +1.3574937937678622e+00  +4.0725043235540186e+00  
    14  +5.4299982487456058e+00  +2.7149997239979351e+00  +2.7149997260074739e+00  
    14  +6.7874967488987998e+00  +4.0724933212182588e+00  +4.0724933193144901e+00  
    14  +5.4300100048341511e+00  +2.9897429152073023e-10  +5.4299999967784123e+00  
    14  +6.7875023803742272e+00  +1.3575048724003920e+00  +6.7875057032043546e+00  
    14  +8.1449996364896418e+00  +2.7150055396081552e+00  +5.4300008125480623e+00  
    14  +9.5025101719948672e+00  +4.0725024102396041e+00  +6.7874975872649470e+00  
    14  +8.1450114761726340e+00  -8.7222264657777006e-06  +8.1450193857149724e+00  
    14  +9.5027447306728892e+00  +1.3573980217785631e+00  +9.5026019764364573e+00  
    14  +5.4299992548851632e+00  +2.7150002138343874e+00  +8.1449997863633534e+00  
    14  +6.7875023776889627e+00  +4.0724942952244678e+00  +9.5024951276661564e+00  
    14  +5.4300100023663331e+00  +5.4300000018604440e+00  +1.2377297152314872e-09  
    14  +6.7875023788682114e+00  +6.7875057058590302e+00  +1.3575048762181339e+00  
    14  +8.1450114750377267e+00  +8.1450193863537486e+00  -8.7194265500973155e-06  
    14  +9.5027447306213251e+00  +9.5026019754239215e+00  +1.3573980262372518e+00  
    14  +8.1449996361794792e+00  +5.4300008162116900e+00  +2.7150055410492833e+00  
    14  +9.5025101730624542e+00  +6.7874975904321380e+00  +4.0725024077905294e+00  
    14  +5.4299992568528506e+00  +8.1449997839907464e+00  +2.7150002156956941e+00  
    14  +6.7875023792460611e+00  +9.5024951264897464e+00  +4.0724942929025394e+00  
    14  +5.4300065823609378e+00  +5.4300000017432462e+00  +5.4299999974717670e+00  
    14  +6.7874967483293904e+00  +6.7875066797083479e+00  +6.7875066781421447e+00  
    14  +8.1449996365997599e+00  +8.1449944600268207e+00  +5.4299991836975900e+00  
    14  +9.5024955060462108e+00  +9.5025062057889578e+00  +6.7874956749577340e+00  
    14  +8.1449996360289294e+00  +5.4299991875523173e+00  +8.1449944583758391e+00  
    14  +9.5024955060519112e+00  +6.7874956776214193e+00  +9.5025062058945728e+00  
    14  +5.4299982486816250e+00  +8.1450002717304617e+00  +8.1450002738339791e+00  
    14  +6.7875006181338113e+00  +9.5024934879646548e+00  +9.5024934887171586e+00  
64
ion step # 2
    14  +5.0000000000000000e-01  +0.0000000000000000e+00  +0.0000000000000000e+00  
    14  +1.3574999999999999e+00  +1.3574999999999999e+00  +1.3574999999999999e+00  
    14  +2.7149999999999999e+00  +2.7149999999999999e+00  +0.0000000000000000e+00  
    14  +4.0724999999999998e+00  +4.0724999999999998e+00  +1.3574999999999999e+00  
    14  +2.7149999999999999e+00  +0.0000000000000000e+00  +2.7149999999999999e+00  
    14  +4.0724999999999998e+00  +1.3574999999999999e+00  +4.0724999999999998e+00  
    14  +0.0000000000000000e+00  +2.7149999999999999e+00  +2.7149999999999999e+00  
    14  +1.3574999999999999e+00  +4.0724999999999998e+00  +4.0724999999999998e+00  
    14  +0.0000000000000000e+00  +0.0000000000000000e+00  +5.4299999999999997e+00  
    14  +1.3574999999999999e+00  +1.3574999999999999e+00  +6.7874999999999996e+00  
    14  +2.7149999999999999e+00  +2.7149999999999999e+00  +5.4299999999999997e+00  
    14  +4.0724999999999998e+00  +4.0724999999999998e+00  +6.7874999999999996e+00  
    14  +2.7149999999999999e+00  +0.0000000000000000e+00  +8.1449999999999996e+00  
    14  +4.0724999999999998e+00  +1.3574999999999999e+00  +9.5024999999999995e+00  
    14  +0.0000000000000000e+00  +2.7149999999999999e+00  +8.1449999999999996e+00  
    14  +1.3574999999999999e+00  +4.0724999999999998e+00  +9.5024999999999995e+00  
    14  +0.0000000000000000e+00  +5.4299999999999997e+00  +0.0000000000000000e+00  
    14  +1.3574999999999999e+00  +6.7874999999999996e+00  +1.3574999999999999e+00  
    14  +2.7149999999999999e+00  +8.1449999999999996e+00  +0.0000000000000000e+00  
    14  +4.0724999999999998e+00  +9.5024999999999995e+00  +1.3574999999999999e+00  
    14  +2.7149999999999999e+00  +5.4299999999999997e+00  +2.7149999999999999e+00  
    14  +4.0724999999999998e+00  +6.7874999999999996e+00  +4.0724999999999998e+00  
    14  +0.0000000000000000e+00  +8.1449999999999996e+00  +2.7149999999999999e+00  
    14  +1.3574999999999999e+00  +9.5024999999999995e+00  +4.0724999999999998e+00  
    14  +0.0000000000000000e+00  +5.4299999999999997e+00  +5.4299999999999997e+00  
    14  +1.3574999999999999e+00  +6.7874999999999996e+00  +6.7874999999999996e+00  
    14  +2.7149999999999999e+00  +8.1449999999999996e+00  +5.4299999999999997e+00  
    14  +4.0724999999999998e+00  +9.5024999999999995e+00  +6.7874999999999996e+00  
    14  +2.7149999999999999e+00  +5.4299999999999997e+00  +8.1449999999999996e+00  
    14  +4.0724999999999998e+00  +6.7874999999999996e+00  +9.5024999999999995e+00  
    14  +0.0000000000000000e+00  +8.1449999999999996e+00  +8.1449999999999996e+00  
    14  +1.3574999999999999e+00  +9.5024999999999995e+00  +9.5024999999999995e+00  
    14  +5.4299999999999997e+00  +0.0000000000000000e+00  +0.0000000000000000e+00  
    14  +6.7874999999999996e+00  +1.3574999999999999e+00  +1.3574999999999999e+00  
    14  +8.1449999999999996e+00  +2.7149999999999999e+00  +0.0000000000000000e+00  
    14  +9.5024999999999995e+00  +4.0724999999999998e+00  +1.3574999999999999e+00  
    14  +8.1449999999999996e+00  +0.0000000000000000e+00  +2.7149999999999999e+00  
    14  +9.5024999999999995e+00  +1.3574999999999999e+00  +4.0724999999999998e+00  
    14  +5.4299999999999997e+00  +2.7149999999999999e+00  +2.7149999999999999e+00  
    14  +6.7874999999999996e+00  +4.0724999999999998e+00  +4.0724999999999998e+00  
    14  +5.4299999999999997e+00  +0.0000000000000000e+00  +5.4299999999999997e+00  
    14  +6.7874999999999996e+00  +1.3574999999999999e+00  +6.7874999999999996e+00  
    14  +8.1449999999999996e+00  +2.7149999999999999e+00  +5.4299999999999997e+00  
    14  +9.5024999999999995e+00  +4.0724999999999998e+00  +6.7874999999999996e+00  
    14  +8.1449999999999996e+00  +0.0000000000000000e+00  +8.1449999999999996e+00  
    14  +9.5024999999999995e+00  +1.3574999999999999e+00  +9.5024999999999995e+00  
    14  +5.4299999999999997e+00  +2.7149999999999999e+00  +8.1449999999999996e+00  
    14  +6.7874999999999996e+00  +4.0724999999999998e+00  +9.5024999999999995e+00  
    14  +5.4299999999999997e+00  +5.4299999999999997e+00  +0.0000000000000000e+00  
    14  +6.7874999999999996e+00  +6.7874999999999996e+00  +1.3574999999999999e+00  
    14  +8.1449999999999996e+00  +8.1449999999999996e+00  +0.0000000000000000e+00  
    14  +9.5024999999999995e+00  +9.5024999999999995e+00  +1.3574999999999999e+00  
    14  +8.1449999999999996e+00  +5.4299999999999997e+00  +2.7149999999999999e+00  
    14  +9.5024999999999995e+00  +6.7874999999999996e+00  +4.0724999999999998e+00  
    14  +5.4299999999999997e+00  +8.1449999999999996e+00  +2.7149999999999999e+00  
    14  +6.7874999999999996e+00  +9.5024999999999995e+00  +4.0724999999999998e+00  
    14  +5.4299999999999997e+00  +5.4299999999999997e+00  +5.4299999999999997e+00  
    14  +6.7874999999999996e+00  +6.7874999999999996e+00  +6.7874999999999996e+00  
    14  +8.1449999999999996e+00  +8.1449999999999996e+00  +5.4299999999999997e+00  
    14  +9.5024999999999995e+00  +9.5024999999999995e+00  +6.7874999999999996e+00  
    14  +8.1449999999999996e+00  +5.4299999999999997e+00  +8.1449999999999996e+00  
    14  +9.5024999999999995e+00  +6.7874999999999996e+00  +9.5024999999999995e+00  
    14  +5.4299999999999997e+00  +8.1449999999999996e+00  +8.1449999999999996e+00  
    14  +6.7874999999999996e+00  +9.5024999999999995e+00  +9.5024999999999995e+00  
64
ion step # 3
    14  +2.5677582936029458e-01  +4.2613053956461063e-07  +6.1735429584631373e-07  
    14  +1.4303790402391550e+00  +1.4378022285258139e+00  +1.4378024152551865e+00  
    14  +2.7178881680465841e+00  +2.7204111838244862e+00  +2.9224540880431905e-03  
    14  +4.0735388462294191e+00  +4.0733522876222095e+00  +1.3569523439936426e+00  
    14  +2.7178879812647243e+00  +2.9224389912862136e-03  +2.7204115323176681e+00  
    14  +4.0735391042861089e+00  +1.3569521378273619e+00  +4.0733518457686948e+00  
    14  -8.8664824725383905e-03  +2.7126082305354400e+00  +2.7126083334508726e+00  
    14  +1.3620093990859092e+00  +4.0714740688997253e+00  +4.0714735034486962e+00  
    14  +1.5810071681528377e-03  -1.5227949152375284e-08  +5.4299999275341566e+00  
    14  +1.3567258765797823e+00  +1.3585240307745698e+00  +6.7887256055726386e+00  
    14  +2.7146660630517387e+00  +2.7139636528358606e+00  +5.4300955005206371e+00  
    14  +4.0718776106789152e+00  +4.0734628085173723e+00  +6.7865372128670183e+00  
    14  +2.7178878852502524e+00  -2.9215045547851663e-03  +8.1395883357937091e+00  
    14  +4.0723595017859404e+00  +1.3566479527337754e+00  +9.5033527844439725e+00  
    14  -8.8002856379739685e-03  +2.7155009691303835e+00  +8.1444981363713307e+00  
    14  +1.3567265065566332e+00  +4.0712742063863860e+00  +9.5014761986339042e+00  
    14  +1.5814878087072051e-03  +5.4300006146800071e+00  +7.8162801158020616e-07  
    14  +1.3567259557712770e+00  +6.7887257673544221e+00  +1.3585247003205794e+00  
    14  +2.7178879642162781e+00  +8.1395876176154793e+00  -2.9215021401513214e-03  
    14  +4.0723598171507636e+00  +9.5033523113267560e+00  +1.3566482752563966e+00  
    14  +2.7146659457210442e+00  +5.4300963955701045e+00  +2.7139638212226336e+00  
    14  +4.0718777658237935e+00  +6.7865373905614925e+00  +4.0734621920777352e+00  
    14  -8.8003325366375670e-03  +8.1444981080814447e+00  +2.7155014847186441e+00  
    14  +1.3567257503725143e+00  +9.5014756652865167e+00  +4.0712738276198106e+00  
    14  -3.9876723785245002e-03  +5.4300003213346182e+00  +5.4299995437160424e+00  
    14  +1.3620093110639426e+00  +6.7885261942836062e+00  +6.7885258548086433e+00  
    14  +2.7146660490993013e+00  +8.1460357076802072e+00  +5.4299036161766576e+00  
    14  +4.0735391596058275e+00  +9.5030476930080248e+00  +6.7866473728917986e+00  
    14  +2.7146663943753357e+00  +5.4299045106368924e+00  +8.1460362276382305e+00  
    14  +4.0735390227689958e+00  +6.7866474227881461e+00  +9.5030479693743093e+00  
    14  -8.8669492656201585e-03  +8.1473915316855212e+00  +8.1473913227090424e+00  
    14  +1.4303785454146523e+00  +9.4221977569179227e+00  +9.4221978254807812e+00  
    14  +5.4309185833465534e+00  +5.2438890728423451e-07  +5.4249038064248501e-07  
    14  +6.7876249441095728e+00  +1.3588196762435667e+00  +1.3588202350978855e+00  
    14  +8.1473254550162792e+00  +2.7110701782691318e+00  +1.7683279844096917e-03  
    14  +9.5015891544607900e+00  +4.0733766047759747e+00  +1.3562429145313526e+00  
    14  +8.1473254762983771e+00  +1.7677207802697956e-03  +2.7110706817575543e+00  
    14  +9.5015889919716265e+00  +1.3562421098331716e+00  +4.0733763056175309e+00  
    14  +5.4296450526451299e+00  +2.7149440594106427e+00  +2.7149444667075318e+00  
    14  +6.7868410610270926e+00  +4.0711463326392039e+00  +4.0711459467800264e+00  
    14  +5.4320277975784554e+00  +6.0596641099804150e-08  +5.4299993470428927e+00  
    14  +6.7879824584816966e+00  +1.3584875467765454e+00  +6.7886559356011649e+00  
    14  +8.1449263230743014e+00  +2.7161227776325818e+00  +5.4301646886862853e+00  
    14  +9.5045616780098801e+00  +4.0729885116493056e+00  +6.7870109825686633e+00  
    14  +8.1473260110788104e+00  -1.7678363716476834e-03  +8.1489291311860566e+00  
    14  +9.5521024480092702e+00  +1.3368308727216540e+00  +9.5231687654957611e+00  
    14  +5.4298489787998534e+00  +2.7150433403339371e+00  +8.1449566997445704e+00  
    14  +6.7879819142274878e+00  +4.0713437459497142e+00  +9.5015124667114641e+00  
    14  +5.4320272973968411e+00  +5.4300003770782448e+00  +2.5086525985544386e-07  
    14  +6.7879821532398958e+00  +6.7886564736554593e+00  +1.3584883205632754e+00  
    14  +8.1473257810536062e+00  +8.1489292606541852e+00  -1.7672688797582272e-03  
    14  +9.5521024375577284e+00  +9.5231685602733567e+00  +1.3368317764165847e+00  
    14  +8.1449262602098305e+00  +5.4301654312369383e+00  +2.7161230697229275e+00  
    14  +9.5045618943902408e+00  +6.7870116245006820e+00  +4.0729880152664899e+00  
    14  +5.4298493776143149e+00  +8.1449562188606119e+00  +2.7150437175869184e+00  
    14  +6.7879822298228785e+00  +9.5015122282747413e+00  +4.0713432753373571e+00  
    14  +5.4313341246210110e+00  +5.4300003533244041e+00  +5.4299994875735145e+00  
    14  +6.7868409456182350e+00  +6.7888538551671651e+00  +6.7888535377263448e+00  
    14  +8.1449263453929923e+00  +8.1438771483838543e+00  +5.4298345503759116e+00  
    14  +9.5015891574541183e+00  +9.5037578003426226e+00  +6.7866233927419986e+00  
    14  +8.1449262296963649e+00  +5.4298353316588717e+00  +8.1438768137598636e+00  
    14  +9.5015891586095673e+00  +6.7866239326225406e+00  +9.5037578217487741e+00  
    14  +5.4296450396774292e+00  +8.1450550748133921e+00  +8.1450555011580317e+00  
    14  +6.7876252844601570e+00  +9.5011801290955678e+00  +9.5011802816142126e+00  
64
ion step # 4
    14  +2.2882417710397207e-01  +4.7510204032615808e-07  +6.8830149057230538e-07  
    14  +1.4387543985934732e+00  +1.4470306697669035e+00  +1.4470308779554695e+00  
    14  +2.7182200802438121e+00  +2.7210330444239461e+00  +3.2583064837537188e-03  
    14  +4.0736582318500023e+00  +4.0734502336740999e+00  +1.3568894066210717e+00  
    14  +2.7182198719967268e+00  +3.2582896520569125e-03  +2.7210334329664381e+00  
    14  +4.0736585195629171e+00  +1.3568891767618818e+00  +4.0734497410421779e+00  
    14  -9.8854306887347695e-03  +2.7123333651379147e+00  +2.7123334798805283e+00  
    14  +1.3625276253575944e+00  +4.0713561675033372e+00  +4.0713555370699073e+00  
    14  +1.7626986606666462e-03  -1.6977965765299321e-08  +5.4299999192062840e+00  
    14  +1.3566369132642184e+00  +1.3586417137829456e+00  +6.7888664538307690e+00  
    14  +2.7146276865637899e+00  +2.7138445544112564e+00  +5.4301064755702635e+00  
    14  +4.0718060848522457e+00  +4.0735734557807435e+00  +6.7864265680611702e+00  
    14  +2.7182197649481417e+00  -3.2572478288431703e-03  +8.1389664199881189e+00  
    14  +4.0723433555402293e+00  +1.3565500343039216e+00  +9.5034507875912944e+00  
    14  -9.8116264239739674e-03  +2.7155585411837153e+00  +8.1444404615210395e+00  
    14  +1.3566376156388653e+00  +4.0711333365183302e+00  +9.5013585419894628e+00  
    14  +1.7632345370867612e-03  +5.4300006853198681e+00  +8.7145376498303926e-07  
    14  +1.3566370015565075e+00  +6.7888666342047346e+00  +1.3586424602740927e+00  
    14  +2.7182198529890504e+00  +8.1389656192758721e+00  -3.2572451367163225e-03  
    14  +4.0723437071472066e+00  +9.5034502601028024e+00  +1.3565503938912811e+00  
    14  +2.7146275557492929e+00  +5.4301074734800325e+00  +2.7138447421492660e+00  
    14  +4.0718062578265837e+00  +6.7864267661765352e+00  +4.0735727684990248e+00  
    14  -9.8116787122957284e-03  +8.1444404299800421e+00  +2.7155591160240795e+00  
    14  +1.3566367725530397e+00  +9.5013579473490690e+00  +4.0711329142233854e+00  
    14  -4.4459411079172352e-03  +5.4300003582628289e+00  +5.4299994912792702e+00  
    14  +1.3625275272200237e+00  +6.7886441259253809e+00  +6.7886437474374937e+00  
    14  +2.7146276710079200e+00  +8.1461547326144483e+00  +5.4298925396166844e+00  
    14  +4.0736585812400534e+00  +9.5031106346328773e+00  +6.7865493878257173e+00  
    14  +2.7146280559635452e+00  +5.4298935368695052e+00  +8.1461553123267549e+00  
    14  +4.0736584286777466e+00  +6.7865494434562210e+00  +9.5031109427595517e+00  
    14  -9.8859511263119145e-03  +8.1476663697571574e+00  +8.1476661367648155e+00  
    14  +1.4387538469030663e+00  +9.4129693140040072e+00  +9.4129693904462037e+00  
    14  +5.4310241481931874e+00  +5.8465239320724533e-07  +6.0483411248557104e-07  
    14  +6.7876393028564568e+00  +1.3589713352310520e+00  +1.3589719583096684e+00  
    14  +8.1475926994672800e+00  +2.7106185578147928e+00  +1.9715466397157962e-03  
    14  +9.5014844788534933e+00  +4.0734773453882251e+00  +1.3560984485607885e+00  
    14  +8.1475927231951459e+00  +1.9708696548508911e-03  +2.7106191191647890e+00  
    14  +9.5014842976908547e+00  +1.3560975513855988e+00  +4.0734770118500867e+00  
    14  +5.4296042616126989e+00  +2.7149376306420847e+00  +2.7149380847460862e+00  
    14  +6.7867653348647616e+00  +4.0709907673463288e+00  +4.0709903371436909e+00  
    14  +5.4322608348321548e+00  +6.7560489451997511e-08  +5.4299992720041743e+00  
    14  +6.7880379032661233e+00  +1.3586010369942827e+00  +6.7887887772914839e+00  
    14  +8.1449178560218645e+00  +2.7162518087640870e+00  +5.4301836149339415e+00  
    14  +9.5047986088488052e+00  +4.0730446520719807e+00  +6.7869547840208293e+00  
    14  +8.1475933194332733e+00  -1.9709985301470260e-03  +8.1493806722820477e+00  
    14  +9.5578028287492707e+00  +1.3344555485233782e+00  +9.5255440481174904e+00  
    14  +5.4298316232382797e+00  +2.7150483210640171e+00  +8.1449517236203661e+00  
    14  +6.7880372964654807e+00  +4.0712108676627876e+00  +9.5013989780437864e+00  
    14  +5.4322602771689894e+00  +5.4300004204125889e+00  +2.7969503646945720e-07  
    14  +6.7880375629455196e+00  +6.7887893771797101e+00  +1.3586018997056353e+00  
    14  +8.1475930629732591e+00  +8.1493808166288293e+00  -1.9703658213183544e-03  
    14  +9.5578028170966238e+00  +9.5255438193106485e+00  +1.3344565560721586e+00  
    14  +8.1449177859329236e+00  +5.4301844428195247e+00  +2.7162521344218526e+00  
    14  +9.5047988500958915e+00  +6.7869554997245487e+00  +4.0730440986441776e+00  
    14  +5.4298320678850409e+00  +8.1449511874725715e+00  +2.7150487416714237e+00  
    14  +6.7880376483295226e+00  +9.5013987122055941e+00  +4.0712103429670199e+00  
    14  +5.4314874440356693e+00  +5.4300003939289256e+00  +5.4299994286847664e+00  
    14  +6.7867652061929604e+00  +6.7890094420430023e+00  +6.7890090881214524e+00  
    14  +8.1449178809054512e+00  +8.1437481087500583e+00  +5.4298155366802483e+00  
    14  +9.5014844821908184e+00  +9.5039023484674754e+00  +6.7865226518445105e+00  
    14  +8.1449177519128089e+00  +5.4298164077493087e+00  +8.1437477356706225e+00  
    14  +9.5014844834790537e+00  +6.7865232537688591e+00  +9.5039023723336502e+00  
    14  +5.4296042471547326e+00  +8.1450614040857996e+00  +8.1450618794265441e+00  
    14  +6.7876396823205924e+00  +9.5010284477373919e+00  +9.5010286177836871e+00  
64
ion step # 5
    14  +2.2469324452291292e-01  +4.8233946465385526e-07  +6.9878666960718902e-07  
    14  +1.4399921801881579e+00  +1.4483945271963541e+00  +1.4483947385563420e+00  
    14  +2.7182691330474533e+00  +2.7211249482651803e+00  +3.3079416033933305e-03  
    14  +4.0736758756710278e+00  +4.0734647089735647e+00  +1.3568801052015873e+00  
    14  +2.7182689216280549e+00  +3.3079245152923807e-03  +2.7211253427264990e+00  
    14  +4.0736761677667914e+00  +1.3568798718408579e+00  +4.0734642088371782e+00  
    14  -1.0036019510679835e-02  +2.7122927431948671e+00  +2.7122928596854021e+00  
    14  +1.3626042132376395e+00  +4.0713387430335697e+00  +4.0713381029964886e+00  
    14  +1.7895505726482283e-03  -1.7236598084327528e-08  +5.4299999179755201e+00  
    14  +1.3566237655098241e+00  +1.3586591059774775e+00  +6.7888872695826663e+00  
    14  +2.7146220149604456e+00  +2.7138269530344923e+00  +5.4301080975563156e+00  
    14  +4.0717955141580671e+00  +4.0735898081731206e+00  +6.7864102160319870e+00  
    14  +2.7182688129487547e+00  -3.3068668215581343e-03  +8.1388745079880547e+00  
    14  +4.0723409693108978e+00  +1.3565355630866764e+00  +9.5034652713288068e+00  
    14  -9.9610909552700182e-03  +2.7155670496707516e+00  +8.1444319378417962e+00  
    14  +1.3566244785840320e+00  +4.0711125175727352e+00  +9.5013411536912162e+00  
    14  +1.7900946122937356e-03  +5.4300006957596274e+00  +8.8472897776642734e-07  
    14  +1.3566238551471057e+00  +6.7888874527043432e+00  +1.3586598638402307e+00  
    14  +2.7182689023308266e+00  +8.1388736950782281e+00  -3.3068640884210141e-03  
    14  +4.0723413262740484e+00  +9.5034647358048669e+00  +1.3565359281517777e+00  
    14  +2.7146218821531978e+00  +5.4301091106676536e+00  +2.7138271436323915e+00  
    14  +4.0717956897673950e+00  +6.7864104171653254e+00  +4.0735891104217572e+00  
    14  -9.9611440401212378e-03  +8.1444319058203209e+00  +2.7155676332678946e+00  
    14  +1.3566236226551343e+00  +9.5013405499924222e+00  +4.0711120888447976e+00  
    14  -4.5136679531058172e-03  +5.4300003637203931e+00  +5.4299994835297181e+00  
    14  +1.3626041136050988e+00  +6.7886615548650688e+00  +6.7886611706115199e+00  
    14  +2.7146219991676066e+00  +8.1461723231301821e+00  +5.4298909026285713e+00  
    14  +4.0736762303834801e+00  +9.5031199366808004e+00  +6.7865349067604042e+00  
    14  +2.7146223899874191e+00  +5.4298919150729539e+00  +8.1461729116734851e+00  
    14  +4.0736760754971293e+00  +6.7865349632383500e+00  +9.5031202495012934e+00  
    14  -1.0036547876296143e-02  +8.1477069876617527e+00  +8.1477067511201433e+00  
    14  +1.4399916200936247e+00  +9.4116054563273313e+00  +9.4116055339340043e+00  
    14  +5.4310397494628511e+00  +5.9355864301189714e-07  +6.1404779870110286e-07  
    14  +6.7876414249140291e+00  +1.3589937486843557e+00  +1.3589943812545844e+00  
    14  +8.1476321951221209e+00  +2.7105518135081592e+00  +2.0015800186582926e-03  
    14  +9.5014690090031717e+00  +4.0734922336915558e+00  +1.3560770981526200e+00  
    14  +8.1476322192114434e+00  +2.0008927210051547e-03  +2.7105523834094307e+00  
    14  +9.5014688250808081e+00  +1.3560761873103926e+00  +4.0734918950724932e+00  
    14  +5.4295982331674626e+00  +2.7149366805440640e+00  +2.7149371415656174e+00  
    14  +6.7867541434093033e+00  +4.0709677765860359e+00  +4.0709673398299451e+00  
    14  +5.4322952750568358e+00  +6.8589666109743164e-08  +5.4299992609143146e+00  
    14  +6.7880460973672925e+00  +1.3586178095426023e+00  +6.7888084097647861e+00  
    14  +8.1449166046889410e+00  +2.7162708780806422e+00  +5.4301864120155727e+00  
    14  +9.5048336245005807e+00  +4.0730529489804788e+00  +6.7869464785221023e+00  
    14  +8.1476328245323106e+00  -2.0010235595115571e-03  +8.1494474048604300e+00  
    14  +9.5586452794318770e+00  +1.3341045029382639e+00  +9.5258950875580695e+00  
    14  +5.4298290582859785e+00  +2.7150490571586130e+00  +8.1449509882064675e+00  
    14  +6.7880454813230067e+00  +4.0711912297809283e+00  +9.5013822057245481e+00  
    14  +5.4322947088985583e+00  +5.4300004268169069e+00  +2.8395574572654757e-07  
    14  +6.7880457518624455e+00  +6.7888090187913557e+00  +1.3586186853959912e+00  
    14  +8.1476325641655354e+00  +8.1494475514061051e+00  -2.0003812123696803e-03  
    14  +9.5586452676017206e+00  +9.5258948552657188e+00  +1.3341055258354484e+00  
    14  +8.1449165335323048e+00  +5.4301872525126775e+00  +2.7162712086992857e+00  
    14  +9.5048338694226846e+00  +6.7869472051284294e+00  +4.0730523871220834e+00  
    14  +5.4298295097062264e+00  +8.1449504438913110e+00  +2.7150494841733046e+00  
    14  +6.7880458385471387e+00  +9.5013819358367311e+00  +4.0711906970922547e+00  
    14  +5.4315101028810036e+00  +5.4300003999298072e+00  +5.4299994199816863e+00  
    14  +6.7867540127773927e+00  +6.7890324359930094e+00  +6.7890320766800256e+00  
    14  +8.1449166299515880e+00  +8.1437290381769625e+00  +5.4298127266748084e+00  
    14  +9.5014690123913361e+00  +9.5039237110171033e+00  +6.7865077634990252e+00  
    14  +8.1449164989939487e+00  +5.4298136110132207e+00  +8.1437286594142542e+00  
    14  +9.5014690136991948e+00  +6.7865083745927333e+00  +9.5039237352468415e+00  
    14  +5.4295982184892528e+00  +8.1450623394794341e+00  +8.1450628220612380e+00  
    14  +6.7876418101586973e+00  +9.5010060309779565e+00  +9.5010062036146383e+00  
64
ion step # 6
    14  +2.2460918230123111e-01  +4.8248674228579475e-07  +6.9900003727347457e-07  
    14  +1.4400173683675253e+00  +1.4484222809500955e+00  +1.4484224923746203e+00  
    14  +2.7182701312452142e+00  +2.7211268184581510e+00  +3.3089516509669653e-03  
    14  +4.0736762347131483e+00  +4.0734650035380024e+00  +1.3568799159227813e+00  
    14  +2.7182699197612612e+00  +3.3089345576483311e-03  +2.7211272130399147e+00  
    14  +4.0736765268981010e+00  +1.3568796824907974e+00  +4.0734645032489043e+00  
    14  -1.0039083910953804e-02  +2.7122919165605142e+00  +2.7122920330866185e+00  
    14  +1.3626057717591655e+00  +4.0713383884551275e+00  +4.0713377482226170e+00  
    14  +1.7900969943903612e-03  -1.7241861110753067e-08  +5.4299999179504743e+00  
    14  +1.3566234979602034e+00  +1.3586594598991364e+00  +6.7888876931718478e+00  
    14  +2.7146218995464158e+00  +2.7138265948560889e+00  +5.4301081305628456e+00  
    14  +4.0717952990502146e+00  +4.0735901409353730e+00  +6.7864098832771251e+00  
    14  +2.7182698110487773e+00  -3.3078765409576614e-03  +8.1388726376290563e+00  
    14  +4.0723409207524348e+00  +1.3565352686053098e+00  +9.5034655660649534e+00  
    14  -9.9641324768433744e-03  +2.7155672228138150e+00  +8.1444317643895783e+00  
    14  +1.3566242112521416e+00  +4.0711120939185639e+00  +9.5013407998488439e+00  
    14  +1.7906412001530466e-03  +5.4300006959720708e+00  +8.8499912109556002e-07  
    14  +1.3566235876248551e+00  +6.7888878763494382e+00  +1.3586602179932958e+00  
    14  +2.7182699004581408e+00  +8.1388718244710159e+00  -3.3078738069860043e-03  
    14  +4.0723412778245809e+00  +9.5034650303774963e+00  +1.3565356337818799e+00  
    14  +2.7146217666986163e+00  +5.4301091439835272e+00  +2.7138267855121856e+00  
    14  +4.0717954747131628e+00  +6.7864100844718775e+00  +4.0735894429709587e+00  
    14  -9.9641855779035345e-03  +8.1444317323583260e+00  +2.7155678065891542e+00  
    14  +1.3566233550618945e+00  +9.5013401959657173e+00  +4.0711116650597186e+00  
    14  -4.5150461574125535e-03  +5.4300003638314518e+00  +5.4299994833720184e+00  
    14  +1.3626056720962030e+00  +6.7886619095344711e+00  +6.7886615251635947e+00  
    14  +2.7146218837487543e+00  +8.1461726810875703e+00  +5.4298908693167576e+00  
    14  +4.0736765895339095e+00  +9.5031201259723943e+00  +6.7865346120786354e+00  
    14  +2.7146222746878998e+00  +5.4298918820702804e+00  +8.1461732698105784e+00  
    14  +4.0736764346002650e+00  +6.7865346685738253e+00  +9.5031204388884039e+00  
    14  -1.0039612437901378e-02  +8.1477078142139252e+00  +8.1477075776000909e+00  
    14  +1.4400168081019724e+00  +9.4115777025685592e+00  +9.4115777801989289e+00  
    14  +5.4310400669401675e+00  +5.9373988033076908e-07  +6.1423529218301247e-07  
    14  +6.7876414680967425e+00  +1.3589942047858881e+00  +1.3589948375492658e+00  
    14  +8.1476329988371248e+00  +2.7105504552979758e+00  +2.0021911815153418e-03  
    14  +9.5014686942001667e+00  +4.0734925366603960e+00  +1.3560766636834753e+00  